 TITLE="SURFACE DATA."
 variables="z","Theta","P","U","V","W","T","M"
 ZONE T="POST", I=     1, J=   200, K=   120
 0.000000000D+00  0.121739133D-08  0.437986438D+01 -0.418391556D+00  0.000000000D+00 -0.108420217D-18  0.108420217D-18  0.100000000D+01
 0.000000000D+00  0.869567629D-02  0.442931697D+01 -0.427214861D+00 -0.433680869D-18  0.542101086D-19  0.000000000D+00  0.100000000D+01
 0.000000000D+00  0.175229204D-01  0.448106633D+01 -0.436724633D+00  0.867361738D-18  0.000000000D+00  0.000000000D+00  0.100000000D+01
 0.000000000D+00  0.264852946D-01  0.453519156D+01 -0.446767658D+00 -0.867361738D-18  0.000000000D+00  0.000000000D+00  0.100000000D+01
 0.000000000D+00  0.355864800D-01  0.459175808D+01 -0.457100391D+00 -0.867361738D-18  0.108420217D-18  0.271050543D-19  0.100000000D+01
 0.000000000D+00  0.448303057D-01  0.465081436D+01 -0.467372507D+00  0.000000000D+00  0.000000000D+00 -0.542101086D-19  0.100000000D+01
 0.000000000D+00  0.542207552D-01  0.471238898D+01 -0.476975769D+00  0.000000000D+00 -0.542101086D-19 -0.108420217D-18  0.100000000D+01
 0.000000000D+00  0.637619559D-01  0.477430807D+01 -0.485131592D+00  0.346944695D-17 -0.108420217D-18 -0.216840434D-18  0.100000000D+01
 0.000000000D+00  0.734582303D-01  0.483607331D+01 -0.491195917D+00  0.346944695D-17  0.108420217D-18  0.433680869D-18  0.100000000D+01
 0.000000000D+00  0.833140529D-01  0.489753348D+01 -0.494620889D+00 -0.346944695D-17  0.433680869D-18 -0.433680869D-18  0.100000000D+01
 0.000000000D+00  0.933341294D-01  0.495854459D+01 -0.494901925D+00  0.693889390D-17 -0.433680869D-18  0.433680869D-18  0.100000000D+01
 0.000000000D+00  0.103523330D+00  0.501897448D+01 -0.491572976D+00  0.346944695D-17  0.867361738D-18  0.867361738D-18  0.100000000D+01
 0.000000000D+00  0.113886749D+00  0.507870675D+01 -0.484210700D+00  0.693889390D-17  0.867361738D-18  0.000000000D+00  0.100000000D+01
 0.000000000D+00  0.124429750D+00  0.513764368D+01 -0.472522408D+00  0.346944695D-17 -0.173472348D-17  0.000000000D+00  0.100000000D+01
 0.000000000D+00  0.135157894D+00  0.519570845D+01 -0.456260771D+00  0.000000000D+00  0.867361738D-18  0.867361738D-18  0.100000000D+01
 0.000000000D+00  0.146077024D+00  0.525284646D+01 -0.435259014D+00 -0.346944695D-17 -0.346944695D-17 -0.867361738D-18  0.100000000D+01
 0.000000000D+00  0.157193281D+00  0.530902034D+01 -0.409462482D+00 -0.346944695D-17  0.346944695D-17  0.867361738D-18  0.100000000D+01
 0.000000000D+00  0.168513091D+00  0.536420747D+01 -0.378882200D+00  0.693889390D-17 -0.346944695D-17  0.173472348D-17  0.100000000D+01
 0.000000000D+00  0.180043193D+00  0.541840287D+01 -0.343593568D+00 -0.693889390D-17 -0.693889390D-17  0.867361738D-18  0.100000000D+01
 0.000000000D+00  0.191790679D+00  0.547161846D+01 -0.303709537D+00  0.000000000D+00  0.000000000D+00  0.000000000D+00  0.100000000D+01
 0.000000000D+00  0.203763024D+00  0.552388217D+01 -0.259385198D+00 -0.693889390D-17  0.000000000D+00 -0.433680869D-18  0.100000000D+01
 0.000000000D+00  0.215968089D+00  0.557523753D+01 -0.210826203D+00  0.000000000D+00  0.346944695D-17  0.130104261D-17  0.100000000D+01
 0.000000000D+00  0.228414125D+00  0.562574136D+01 -0.158313796D+00  0.000000000D+00  0.693889390D-17  0.000000000D+00  0.100000000D+01
 0.000000000D+00  0.241109935D+00  0.567546273D+01 -0.102228098D+00  0.000000000D+00  0.000000000D+00  0.000000000D+00  0.100000000D+01
 0.000000000D+00  0.254064714D+00  0.572447205D+01 -0.430686586D-01 -0.346944695D-17  0.000000000D+00  0.216840434D-18  0.100000000D+01
 0.000000000D+00  0.267288242D+00  0.263124679D+01  0.185420625D-01 -0.346944695D-17 -0.346944695D-17  0.433680869D-18  0.100000000D+01
 0.000000000D+00  0.280790808D+00  0.267904687D+01  0.818393007D-01 -0.346944695D-17  0.000000000D+00  0.000000000D+00  0.100000000D+01
 0.000000000D+00  0.294583441D+00  0.272635727D+01  0.145885110D+00  0.000000000D+00 -0.346944695D-17 -0.867361738D-18  0.100000000D+01
 0.000000000D+00  0.308677752D+00  0.277325797D+01  0.209514677D+00 -0.346944695D-17 -0.346944695D-17 -0.867361738D-18  0.100000000D+01
 0.000000000D+00  0.323086503D+00  0.281982873D+01  0.271323472D+00  0.693889390D-17  0.346944695D-17 -0.867361738D-18  0.100000000D+01
 0.000000000D+00  0.337823164D+00  0.286614689D+01  0.329672903D+00  0.173472348D-17 -0.346944695D-17  0.000000000D+00  0.100000000D+01
 0.000000000D+00  0.352902384D+00  0.291227727D+01  0.382780641D+00  0.000000000D+00  0.000000000D+00  0.000000000D+00  0.100000000D+01
 0.000000000D+00  0.368339607D+00  0.295826999D+01  0.428818584D+00  0.173472348D-17  0.000000000D+00  0.867361738D-18  0.100000000D+01
 0.000000000D+00  0.384151397D+00  0.300416722D+01  0.466060460D+00  0.000000000D+00 -0.346944695D-17  0.000000000D+00  0.100000000D+01
 0.000000000D+00  0.400355416D+00  0.305000338D+01  0.492969513D+00  0.433680869D-18  0.000000000D+00  0.000000000D+00  0.100000000D+01
 0.000000000D+00  0.416970511D+00  0.309580527D+01  0.508398473D+00  0.000000000D+00  0.000000000D+00  0.000000000D+00  0.100000000D+01
 0.000000000D+00  0.434016798D+00  0.314159265D+01  0.511529446D+00  0.000000000D+00 -0.352365706D-18 -0.542101086D-19  0.100000000D+01
 0.000000000D+00  0.451515803D+00  0.318738004D+01  0.501994312D+00  0.000000000D+00 -0.867361738D-18  0.000000000D+00  0.100000000D+01
 0.000000000D+00  0.469490582D+00  0.323318193D+01  0.480197757D+00  0.433680869D-18 -0.346944695D-17 -0.867361738D-18  0.100000000D+01
 0.000000000D+00  0.487965752D+00  0.327901808D+01  0.446965635D+00 -0.867361738D-18  0.346944695D-17  0.000000000D+00  0.100000000D+01
 0.000000000D+00  0.506967661D+00  0.332491531D+01  0.403464615D+00 -0.173472348D-17  0.346944695D-17  0.867361738D-18  0.100000000D+01
 0.000000000D+00  0.526524601D+00  0.337090801D+01  0.351238042D+00 -0.173472348D-17  0.346944695D-17  0.867361738D-18  0.100000000D+01
 0.000000000D+00  0.546666852D+00  0.341703841D+01  0.292029738D+00 -0.173472348D-17 -0.346944695D-17  0.000000000D+00  0.100000000D+01
 0.000000000D+00  0.567426864D+00  0.346335668D+01  0.227665782D+00  0.000000000D+00 -0.346944695D-17  0.867361738D-18  0.100000000D+01
 0.000000000D+00  0.588839458D+00  0.350992736D+01  0.159936398D+00  0.000000000D+00  0.346944695D-17  0.000000000D+00  0.100000000D+01
 0.000000000D+00  0.610941912D+00  0.355682804D+01  0.904717594D-01 -0.693889390D-17 -0.693889390D-17  0.867361738D-18  0.100000000D+01
 0.000000000D+00  0.633774366D+00  0.360413846D+01  0.206731502D-01  0.346944695D-17 -0.346944695D-17 -0.433680869D-18  0.100000000D+01
 0.000000000D+00  0.657380022D+00  0.365193849D+01 -0.483070649D-01  0.346944695D-17 -0.693889390D-17  0.000000000D+00  0.100000000D+01
 0.000000000D+00  0.681806392D+00  0.370030591D+01 -0.115536869D+00  0.000000000D+00  0.346944695D-17 -0.216840434D-18  0.100000000D+01
 0.000000000D+00  0.707104632D+00  0.374931526D+01 -0.180257872D+00 -0.693889390D-17  0.000000000D+00  0.000000000D+00  0.100000000D+01
 0.000000000D+00  0.733329813D+00  0.379903660D+01 -0.241845563D+00  0.000000000D+00  0.693889390D-17  0.433680869D-18  0.100000000D+01
 0.000000000D+00  0.760540411D+00  0.384954043D+01 -0.299795687D+00  0.138777878D-16  0.346944695D-17  0.000000000D+00  0.100000000D+01
 0.000000000D+00  0.788799322D+00  0.390089583D+01 -0.353716403D+00 -0.693889390D-17  0.000000000D+00  0.867361738D-18  0.100000000D+01
 0.000000000D+00  0.818173395D+00  0.395315963D+01 -0.403312206D+00 -0.693889390D-17  0.346944695D-17 -0.867361738D-18  0.100000000D+01
 0.000000000D+00  0.848733841D+00  0.400637509D+01 -0.448353767D+00  0.693889390D-17 -0.346944695D-17 -0.173472348D-17  0.100000000D+01
 0.000000000D+00  0.880556294D+00  0.406057049D+01 -0.488658875D+00  0.693889390D-17 -0.346944695D-17  0.000000000D+00  0.100000000D+01
 0.000000000D+00  0.913720658D+00  0.411575771D+01 -0.524073124D+00  0.000000000D+00 -0.346944695D-17 -0.867361738D-18  0.100000000D+01
 0.000000000D+00  0.948311437D+00  0.417193153D+01 -0.554478884D+00  0.000000000D+00 -0.173472348D-17  0.000000000D+00  0.100000000D+01
 0.000000000D+00  0.984417091D+00  0.422906951D+01 -0.579804659D+00  0.693889390D-17 -0.173472348D-17 -0.867361738D-18  0.100000000D+01
 0.000000000D+00  0.102213025D+01  0.428713431D+01 -0.600057781D+00 -0.693889390D-17  0.173472348D-17  0.000000000D+00  0.100000000D+01
 0.000000000D+00  0.106154682D+01  0.434607118D+01 -0.615328610D+00  0.346944695D-17  0.000000000D+00  0.000000000D+00  0.100000000D+01
 0.000000000D+00  0.110276629D+01  0.440580344D+01 -0.625816882D+00  0.346944695D-17  0.867361738D-18  0.000000000D+00  0.100000000D+01
 0.000000000D+00  0.114589169D+01  0.446623337D+01 -0.631807208D+00 -0.346944695D-17  0.000000000D+00  0.000000000D+00  0.100000000D+01
 0.000000000D+00  0.119102646D+01  0.452724449D+01 -0.633616924D+00  0.000000000D+00  0.000000000D+00  0.000000000D+00  0.100000000D+01
 0.000000000D+00  0.123827173D+01  0.458870467D+01 -0.631677687D+00  0.000000000D+00 -0.433680869D-18  0.867361738D-18  0.100000000D+01
 0.000000000D+00  0.128772432D+01  0.465046990D+01 -0.626496255D+00  0.346944695D-17  0.000000000D+00 -0.433680869D-18  0.100000000D+01
 0.000000000D+00  0.133947367D+01  0.471238898D+01 -0.618606448D+00  0.000000000D+00  0.108420217D-18  0.000000000D+00  0.100000000D+01
 0.000000000D+00  0.139359891D+01  0.477396362D+01 -0.608684957D+00  0.173472348D-17  0.542101086D-19  0.216840434D-18  0.100000000D+01
 0.000000000D+00  0.145016543D+01  0.483301989D+01 -0.597588301D+00 -0.173472348D-17 -0.108420217D-18 -0.108420217D-18  0.100000000D+01
 0.000000000D+00  0.150922170D+01  0.488958642D+01 -0.586029768D+00  0.000000000D+00  0.000000000D+00  0.000000000D+00  0.100000000D+01
 0.000000000D+00  0.157079633D+01  0.494371163D+01 -0.574459314D+00  0.867361738D-18  0.000000000D+00 -0.271050543D-19  0.100000000D+01
 0.000000000D+00  0.163271542D+01  0.499546097D+01 -0.563210368D+00  0.000000000D+00  0.000000000D+00  0.542101086D-19  0.100000000D+01
 0.000000000D+00  0.169448066D+01  0.504491355D+01 -0.552511096D+00 -0.867361738D-18  0.108420217D-18  0.108420217D-18  0.100000000D+01
 0.000000000D+00  0.175594083D+01  0.509215896D+01 -0.542501152D+00 -0.433680869D-18  0.000000000D+00  0.216840434D-18  0.100000000D+01
 0.000000000D+00  0.181695193D+01  0.513729365D+01 -0.533254087D+00  0.000000000D+00  0.000000000D+00 -0.216840434D-18  0.100000000D+01
 0.000000000D+00  0.187738183D+01  0.518041905D+01 -0.524792671D+00  0.000000000D+00  0.000000000D+00  0.000000000D+00  0.100000000D+01
 0.000000000D+00  0.193711409D+01  0.522163852D+01 -0.517105102D+00  0.000000000D+00  0.271050543D-19  0.433680869D-18  0.100000000D+01
 0.000000000D+00  0.199605103D+01  0.526105509D+01 -0.510155559D+00  0.108420217D-18  0.542101086D-19  0.000000000D+00  0.100000000D+01
 0.000000000D+00  0.205411580D+01  0.529876822D+01 -0.503893495D+00  0.108420217D-18 -0.542101086D-19  0.000000000D+00  0.100000000D+01
 0.000000000D+00  0.211125381D+01  0.533487392D+01 -0.498260796D+00 -0.216840434D-18  0.108420217D-18 -0.216840434D-18  0.100000000D+01
 0.000000000D+00  0.216742769D+01  0.536946465D+01 -0.493197679D+00  0.000000000D+00 -0.108420217D-18  0.000000000D+00  0.100000000D+01
 0.000000000D+00  0.222261482D+01  0.540262901D+01 -0.488647848D+00 -0.216840434D-18 -0.108420217D-18  0.000000000D+00  0.100000000D+01
 0.000000000D+00  0.227681021D+01  0.543445147D+01 -0.484561622D+00  0.216840434D-18  0.216840434D-18 -0.216840434D-18  0.100000000D+01
 0.000000000D+00  0.233002581D+01  0.546501205D+01 -0.480899155D+00 -0.216840434D-18  0.000000000D+00 -0.325260652D-18  0.100000000D+01
 0.000000000D+00  0.238228952D+01  0.549438607D+01 -0.477627724D+00 -0.216840434D-18  0.000000000D+00 -0.108420217D-18  0.100000000D+01
 0.000000000D+00  0.243364488D+01  0.552264498D+01 -0.474728197D+00 -0.216840434D-18  0.000000000D+00  0.000000000D+00  0.100000000D+01
 0.000000000D+00  0.248414871D+01  0.554985558D+01 -0.472190261D+00 -0.216840434D-18 -0.216840434D-18  0.108420217D-18  0.100000000D+01
 0.000000000D+00  0.253387008D+01  0.557608068D+01 -0.469976872D+00 -0.216840434D-18  0.000000000D+00 -0.108420217D-18  0.100000000D+01
 0.000000000D+00  0.258287940D+01  0.560137892D+01 -0.468076676D+00  0.000000000D+00 -0.433680869D-18  0.000000000D+00  0.100000000D+01
 0.000000000D+00  0.263124679D+01  0.562580528D+01 -0.466482550D+00  0.000000000D+00  0.216840434D-18 -0.216840434D-18  0.100000000D+01
 0.000000000D+00  0.267904687D+01  0.564941094D+01 -0.465158731D+00 -0.433680869D-18  0.000000000D+00  0.216840434D-18  0.100000000D+01
 0.000000000D+00  0.272635727D+01  0.567224344D+01 -0.464077681D+00 -0.216840434D-18  0.000000000D+00 -0.216840434D-18  0.100000000D+01
 0.000000000D+00  0.277325797D+01  0.569434593D+01 -0.463203579D+00  0.000000000D+00  0.433680869D-18  0.216840434D-18  0.100000000D+01
 0.000000000D+00  0.281982873D+01  0.571575844D+01 -0.462498844D+00 -0.433680869D-18  0.000000000D+00 -0.216840434D-18  0.100000000D+01
 0.000000000D+00  0.286614689D+01  0.573651846D+01 -0.461925089D+00  0.000000000D+00  0.000000000D+00  0.000000000D+00  0.100000000D+01
 0.000000000D+00  0.291227729D+01  0.575666071D+01 -0.461445034D+00  0.216840434D-18  0.000000000D+00 -0.433680869D-18  0.100000000D+01
 0.000000000D+00  0.295827001D+01  0.577621760D+01 -0.461023688D+00 -0.216840434D-18  0.000000000D+00  0.000000000D+00  0.100000000D+01
 0.000000000D+00  0.300416722D+01  0.579521963D+01 -0.460629135D+00 -0.216840434D-18 -0.433680869D-18  0.216840434D-18  0.100000000D+01
 0.000000000D+00  0.305000338D+01  0.581369475D+01 -0.460232973D+00  0.216840434D-18  0.867361738D-18  0.216840434D-18  0.100000000D+01
 0.000000000D+00  0.309580527D+01  0.583166950D+01 -0.459810495D+00  0.216840434D-18  0.000000000D+00  0.216840434D-18  0.100000000D+01
 0.000000000D+00  0.314159265D+01  0.584916851D+01 -0.459340721D+00 -0.433680869D-18 -0.867361738D-18 -0.216840434D-18  0.100000000D+01
 0.000000000D+00  0.318738004D+01  0.586621480D+01 -0.458806157D+00  0.000000000D+00  0.433680869D-18 -0.433680869D-18  0.100000000D+01
 0.000000000D+00  0.323318193D+01  0.588282989D+01 -0.458192706D+00  0.000000000D+00 -0.433680869D-18  0.216840434D-18  0.100000000D+01
 0.000000000D+00  0.327901808D+01  0.589903391D+01 -0.457489431D+00  0.433680869D-18  0.433680869D-18 -0.433680869D-18  0.100000000D+01
 0.000000000D+00  0.332491531D+01  0.591484573D+01 -0.456688345D+00 -0.867361738D-18  0.000000000D+00  0.000000000D+00  0.100000000D+01
 0.000000000D+00  0.337090801D+01  0.593028299D+01 -0.455783993D+00  0.000000000D+00  0.173472348D-17  0.000000000D+00  0.100000000D+01
 0.000000000D+00  0.341703841D+01  0.594536219D+01 -0.454773247D+00 -0.433680869D-18  0.867361738D-18  0.000000000D+00  0.100000000D+01
 0.000000000D+00  0.346335668D+01  0.596009888D+01 -0.453655213D+00  0.433680869D-18  0.000000000D+00  0.000000000D+00  0.100000000D+01
 0.000000000D+00  0.350992736D+01  0.597450755D+01 -0.452430844D+00  0.000000000D+00  0.000000000D+00  0.216840434D-18  0.100000000D+01
 0.000000000D+00  0.355682804D+01  0.598860187D+01 -0.451101810D+00 -0.433680869D-18 -0.867361738D-18 -0.216840434D-18  0.100000000D+01
 0.000000000D+00  0.360413846D+01  0.600239447D+01 -0.449676692D+00  0.867361738D-18 -0.867361738D-18  0.000000000D+00  0.100000000D+01
 0.000000000D+00  0.365193851D+01  0.601589706D+01 -0.448171318D+00  0.433680869D-18 -0.867361738D-18  0.000000000D+00  0.100000000D+01
 0.000000000D+00  0.370030591D+01  0.602912059D+01 -0.446572721D+00  0.000000000D+00  0.867361738D-18  0.000000000D+00  0.100000000D+01
 0.000000000D+00  0.374931526D+01  0.604207535D+01 -0.444879979D+00 -0.433680869D-18  0.867361738D-18  0.216840434D-18  0.100000000D+01
 0.000000000D+00  0.379903660D+01  0.605477116D+01 -0.443116188D+00  0.000000000D+00 -0.867361738D-18  0.433680869D-18  0.100000000D+01
 0.000000000D+00  0.384954043D+01  0.606721722D+01 -0.441287607D+00  0.000000000D+00  0.000000000D+00  0.000000000D+00  0.100000000D+01
 0.000000000D+00  0.390089583D+01  0.607942228D+01 -0.439401776D+00 -0.433680869D-18  0.867361738D-18 -0.216840434D-18  0.100000000D+01
 0.000000000D+00  0.395315963D+01  0.609139464D+01 -0.437467128D+00 -0.433680869D-18  0.000000000D+00  0.216840434D-18  0.100000000D+01
 0.000000000D+00  0.400637509D+01  0.610314211D+01 -0.435492218D+00  0.216840434D-18 -0.867361738D-18  0.000000000D+00  0.100000000D+01
 0.000000000D+00  0.406057049D+01  0.611467223D+01 -0.433484882D+00  0.216840434D-18  0.000000000D+00  0.216840434D-18  0.100000000D+01
 0.000000000D+00  0.411575771D+01  0.612599203D+01 -0.431453109D+00  0.000000000D+00  0.000000000D+00  0.000000000D+00  0.100000000D+01
 0.000000000D+00  0.417193153D+01  0.613710828D+01 -0.429405838D+00 -0.216840434D-18  0.000000000D+00  0.433680869D-18  0.100000000D+01
 0.000000000D+00  0.422906951D+01  0.614802741D+01 -0.427349985D+00 -0.433680869D-18  0.173472348D-17 -0.216840434D-18  0.100000000D+01
 0.000000000D+00  0.428713431D+01  0.615875556D+01 -0.425291330D+00  0.000000000D+00  0.867361738D-18 -0.216840434D-18  0.100000000D+01
 0.000000000D+00  0.434607118D+01  0.616929856D+01 -0.423237294D+00  0.216840434D-18  0.867361738D-18  0.000000000D+00  0.100000000D+01
 0.000000000D+00  0.440580344D+01  0.617966198D+01 -0.421194553D+00  0.000000000D+00 -0.867361738D-18  0.216840434D-18  0.100000000D+01
 0.000000000D+00  0.446623337D+01  0.618985118D+01 -0.419168383D+00  0.108420217D-18  0.867361738D-18 -0.216840434D-18  0.100000000D+01
 0.000000000D+00  0.452724449D+01  0.619987125D+01 -0.417164296D+00  0.108420217D-18  0.000000000D+00 -0.216840434D-18  0.100000000D+01
 0.000000000D+00  0.458870467D+01  0.620972708D+01 -0.415187568D+00 -0.108420217D-18  0.000000000D+00 -0.216840434D-18  0.100000000D+01
 0.000000000D+00  0.465046990D+01  0.621942335D+01 -0.413241833D+00 -0.216840434D-18  0.000000000D+00  0.433680869D-18  0.100000000D+01
 0.000000000D+00  0.471238898D+01  0.622896456D+01 -0.411330700D+00  0.108420217D-18  0.867361738D-18  0.000000000D+00  0.100000000D+01
 0.000000000D+00  0.477396362D+01  0.623835500D+01 -0.409458011D+00 -0.542101086D-19 -0.867361738D-18  0.216840434D-18  0.100000000D+01
 0.000000000D+00  0.483301989D+01  0.624759883D+01 -0.407626838D+00  0.000000000D+00  0.173472348D-17  0.000000000D+00  0.100000000D+01
 0.000000000D+00  0.488958642D+01  0.625670002D+01 -0.405840099D+00  0.000000000D+00  0.000000000D+00  0.000000000D+00  0.100000000D+01
 0.000000000D+00  0.494371163D+01  0.626566239D+01 -0.404100388D+00  0.000000000D+00  0.000000000D+00  0.216840434D-18  0.100000000D+01
 0.000000000D+00  0.499546097D+01  0.627448964D+01 -0.402406126D+00  0.542101086D-19 -0.867361738D-18  0.433680869D-18  0.100000000D+01
 0.000000000D+00  0.504491355D+01  0.314159265D+01 -0.400751561D+00  0.000000000D+00  0.000000000D+00  0.000000000D+00  0.100000000D+01
 0.000000000D+00  0.509215896D+01 -0.542501152D+00 -0.433680869D-18  0.000000000D+00  0.216840434D-18  0.100000000D+01  0.312724709D+01
 0.000000000D+00  0.513729365D+01 -0.533254087D+00  0.000000000D+00  0.000000000D+00 -0.216840434D-18  0.100000000D+01  0.235654855D+01
 0.000000000D+00  0.518041905D+01 -0.524792671D+00  0.000000000D+00  0.000000000D+00  0.000000000D+00  0.100000000D+01  0.172073019D+01
 0.000000000D+00  0.522163852D+01 -0.517105102D+00  0.000000000D+00  0.271050543D-19  0.433680869D-18  0.100000000D+01  0.122225058D+01
 0.000000000D+00  0.526105509D+01 -0.510155559D+00  0.108420217D-18  0.542101086D-19  0.000000000D+00  0.100000000D+01  0.878985584D+00
 0.000000000D+00  0.529876822D+01 -0.503893495D+00  0.108420217D-18 -0.542101086D-19  0.000000000D+00  0.100000000D+01  0.723579586D+00
 0.000000000D+00  0.533487392D+01 -0.498260796D+00 -0.216840434D-18  0.108420217D-18 -0.216840434D-18  0.100000000D+01  0.745830297D+00
 0.000000000D+00  0.536946465D+01 -0.493197679D+00  0.000000000D+00 -0.108420217D-18  0.000000000D+00  0.100000000D+01  0.861415207D+00
 0.000000000D+00  0.540262901D+01 -0.488647848D+00 -0.216840434D-18 -0.108420217D-18  0.000000000D+00  0.100000000D+01  0.998245716D+00
 0.000000000D+00  0.543445147D+01 -0.484561622D+00  0.216840434D-18  0.216840434D-18 -0.216840434D-18  0.100000000D+01  0.112527621D+01
 0.000000000D+00  0.546501205D+01 -0.480899155D+00 -0.216840434D-18  0.000000000D+00 -0.325260652D-18  0.100000000D+01  0.123280394D+01
 0.000000000D+00  0.549438607D+01 -0.477627724D+00 -0.216840434D-18  0.000000000D+00 -0.108420217D-18  0.100000000D+01  0.131953466D+01
 0.000000000D+00  0.552264498D+01 -0.474728197D+00 -0.216840434D-18  0.000000000D+00  0.000000000D+00  0.100000000D+01  0.138793528D+01
 0.000000000D+00  0.554985558D+01 -0.472190261D+00 -0.216840434D-18 -0.216840434D-18  0.108420217D-18  0.100000000D+01  0.144195712D+01
 0.000000000D+00  0.557608068D+01 -0.469976872D+00 -0.216840434D-18  0.000000000D+00 -0.108420217D-18  0.100000000D+01  0.148720717D+01
 0.000000000D+00  0.560137892D+01 -0.468076676D+00  0.000000000D+00 -0.433680869D-18  0.000000000D+00  0.100000000D+01  0.152907634D+01
 0.000000000D+00  0.562580528D+01 -0.466482550D+00  0.000000000D+00  0.216840434D-18 -0.216840434D-18  0.100000000D+01  0.157251489D+01
 0.000000000D+00  0.564941094D+01 -0.465158731D+00 -0.433680869D-18  0.000000000D+00  0.216840434D-18  0.100000000D+01  0.162270868D+01
 0.000000000D+00  0.567224344D+01 -0.464077681D+00 -0.216840434D-18  0.000000000D+00 -0.216840434D-18  0.100000000D+01  0.168356514D+01
 0.000000000D+00  0.569434593D+01 -0.463203579D+00  0.000000000D+00  0.433680869D-18  0.216840434D-18  0.100000000D+01  0.175828004D+01
 0.000000000D+00  0.571575844D+01 -0.462498844D+00 -0.433680869D-18  0.000000000D+00 -0.216840434D-18  0.100000000D+01  0.184882986D+01
 0.000000000D+00  0.573651846D+01 -0.461925089D+00  0.000000000D+00  0.000000000D+00  0.000000000D+00  0.100000000D+01  0.195600796D+01
 0.000000000D+00  0.575666071D+01 -0.461445034D+00  0.216840434D-18  0.000000000D+00 -0.433680869D-18  0.100000000D+01  0.207948065D+01
 0.000000000D+00  0.577621760D+01 -0.461023688D+00 -0.216840434D-18  0.000000000D+00  0.000000000D+00  0.100000000D+01  0.221796989D+01
 0.000000000D+00  0.579521963D+01 -0.460629135D+00 -0.216840434D-18 -0.433680869D-18  0.216840434D-18  0.100000000D+01  0.236943626D+01
 0.000000000D+00  0.581369475D+01 -0.460232973D+00  0.216840434D-18  0.867361738D-18  0.216840434D-18  0.100000000D+01  0.253127193D+01
 0.000000000D+00  0.583166950D+01 -0.459810495D+00  0.216840434D-18  0.000000000D+00  0.216840434D-18  0.100000000D+01  0.270048284D+01
 0.000000000D+00  0.584916851D+01 -0.459340721D+00 -0.433680869D-18 -0.867361738D-18 -0.216840434D-18  0.100000000D+01  0.287390018D+01
 0.000000000D+00  0.586621480D+01 -0.458806157D+00  0.000000000D+00  0.433680869D-18 -0.433680869D-18  0.100000000D+01  0.304835653D+01
 0.000000000D+00  0.588282989D+01 -0.458192706D+00  0.000000000D+00 -0.433680869D-18  0.216840434D-18  0.100000000D+01  0.322078514D+01
 0.000000000D+00  0.589903391D+01 -0.457489431D+00  0.433680869D-18  0.433680869D-18 -0.433680869D-18  0.100000000D+01  0.338839912D+01
 0.000000000D+00  0.591484573D+01 -0.456688345D+00 -0.867361738D-18  0.000000000D+00  0.000000000D+00  0.100000000D+01  0.354873991D+01
 0.000000000D+00  0.593028299D+01 -0.455783993D+00  0.000000000D+00  0.173472348D-17  0.000000000D+00  0.100000000D+01  0.369972944D+01
 0.000000000D+00  0.594536219D+01 -0.454773247D+00 -0.433680869D-18  0.867361738D-18  0.000000000D+00  0.100000000D+01  0.383969688D+01
 0.000000000D+00  0.596009888D+01 -0.453655213D+00  0.433680869D-18  0.000000000D+00  0.000000000D+00  0.100000000D+01  0.396732616D+01
 0.000000000D+00  0.597450755D+01 -0.452430844D+00  0.000000000D+00  0.000000000D+00  0.216840434D-18  0.100000000D+01  0.408164453D+01
 0.000000000D+00  0.598860187D+01 -0.451101810D+00 -0.433680869D-18 -0.867361738D-18 -0.216840434D-18  0.100000000D+01  0.418199444D+01
 0.000000000D+00  0.600239447D+01 -0.449676692D+00  0.867361738D-18 -0.867361738D-18  0.000000000D+00  0.100000000D+01  0.426819801D+01
 0.000000000D+00  0.601589706D+01 -0.448171318D+00  0.433680869D-18 -0.867361738D-18  0.000000000D+00  0.100000000D+01  0.434051371D+01
 0.000000000D+00  0.602912059D+01 -0.446572721D+00  0.000000000D+00  0.867361738D-18  0.000000000D+00  0.100000000D+01  0.439914560D+01
 0.000000000D+00  0.604207535D+01 -0.444879979D+00 -0.433680869D-18  0.867361738D-18  0.216840434D-18  0.100000000D+01  0.444419336D+01
 0.000000000D+00  0.605477116D+01 -0.443116188D+00  0.000000000D+00 -0.867361738D-18  0.433680869D-18  0.100000000D+01  0.447622108D+01
 0.000000000D+00  0.606721722D+01 -0.441287607D+00  0.000000000D+00  0.000000000D+00  0.000000000D+00  0.100000000D+01  0.449595976D+01
 0.000000000D+00  0.607942228D+01 -0.439401776D+00 -0.433680869D-18  0.867361738D-18 -0.216840434D-18  0.100000000D+01  0.450404644D+01
 0.000000000D+00  0.609139464D+01 -0.437467128D+00 -0.433680869D-18  0.000000000D+00  0.216840434D-18  0.100000000D+01  0.450113535D+01
 0.000000000D+00  0.610314211D+01 -0.435492218D+00  0.216840434D-18 -0.867361738D-18  0.000000000D+00  0.100000000D+01  0.448793554D+01
 0.000000000D+00  0.611467223D+01 -0.433484882D+00  0.216840434D-18  0.000000000D+00  0.216840434D-18  0.100000000D+01  0.446518850D+01
 0.000000000D+00  0.612599203D+01 -0.431453109D+00  0.000000000D+00  0.000000000D+00  0.000000000D+00  0.100000000D+01  0.443354750D+01
 0.000000000D+00  0.613710828D+01 -0.429405838D+00 -0.216840434D-18  0.000000000D+00  0.433680869D-18  0.100000000D+01  0.439383984D+01
 0.000000000D+00  0.614802741D+01 -0.427349985D+00 -0.433680869D-18  0.173472348D-17 -0.216840434D-18  0.100000000D+01  0.434683657D+01
 0.000000000D+00  0.615875556D+01 -0.425291330D+00  0.000000000D+00  0.867361738D-18 -0.216840434D-18  0.100000000D+01  0.429321337D+01
 0.000000000D+00  0.616929856D+01 -0.423237294D+00  0.216840434D-18  0.867361738D-18  0.000000000D+00  0.100000000D+01  0.423356772D+01
 0.000000000D+00  0.617966198D+01 -0.421194553D+00  0.000000000D+00 -0.867361738D-18  0.216840434D-18  0.100000000D+01  0.416852427D+01
 0.000000000D+00  0.618985118D+01 -0.419168383D+00  0.108420217D-18  0.867361738D-18 -0.216840434D-18  0.100000000D+01  0.409877920D+01
 0.000000000D+00  0.619987125D+01 -0.417164296D+00  0.108420217D-18  0.000000000D+00 -0.216840434D-18  0.100000000D+01  0.402492952D+01
 0.000000000D+00  0.620972708D+01 -0.415187568D+00 -0.108420217D-18  0.000000000D+00 -0.216840434D-18  0.100000000D+01  0.394758344D+01
 0.000000000D+00  0.621942335D+01 -0.413241833D+00 -0.216840434D-18  0.000000000D+00  0.433680869D-18  0.100000000D+01  0.386736631D+01
 0.000000000D+00  0.622896456D+01 -0.411330700D+00  0.108420217D-18  0.867361738D-18  0.000000000D+00  0.100000000D+01  0.378477788D+01
 0.000000000D+00  0.623835500D+01 -0.409458011D+00 -0.542101086D-19 -0.867361738D-18  0.216840434D-18  0.100000000D+01  0.370032167D+01
 0.000000000D+00  0.624759883D+01 -0.407626838D+00  0.000000000D+00  0.173472348D-17  0.000000000D+00  0.100000000D+01  0.361453676D+01
 0.000000000D+00  0.625670002D+01 -0.405840099D+00  0.000000000D+00  0.000000000D+00  0.000000000D+00  0.100000000D+01  0.352804017D+01
 0.000000000D+00  0.626566240D+01 -0.404100388D+00  0.000000000D+00  0.000000000D+00  0.216840434D-18  0.100000000D+01  0.344150996D+01
 0.000000000D+00  0.627448964D+01 -0.402406126D+00  0.542101086D-19 -0.867361738D-18  0.433680869D-18  0.100000000D+01  0.335547423D+01
 0.535219088D-01  0.974699150D-04 -0.400804848D+00 -0.108420217D-18  0.000000000D+00  0.000000000D+00  0.100000000D+01  0.400012827D+01
 0.534936748D-01  0.879774415D-02 -0.398737192D+00 -0.108420217D-18 -0.867361738D-18  0.000000000D+00  0.100000000D+01  0.390223885D+01
 0.535079725D-01  0.175634062D-01 -0.396650374D+00 -0.271050543D-19  0.000000000D+00  0.000000000D+00  0.100000000D+01  0.379462433D+01
 0.535356104D-01  0.264866476D-01 -0.394550264D+00  0.000000000D+00  0.000000000D+00 -0.433680869D-18  0.100000000D+01  0.368277979D+01
 0.535622500D-01  0.355741961D-01 -0.392443985D+00 -0.542101086D-19 -0.867361738D-18 -0.216840434D-18  0.100000000D+01  0.356741691D+01
 0.535819307D-01  0.448242464D-01 -0.390349299D+00  0.609863722D-19  0.000000000D+00 -0.433680869D-18  0.100000000D+01  0.344882870D+01
 0.535934642D-01  0.542387415D-01 -0.388279110D+00  0.135525272D-19  0.867361738D-18 -0.433680869D-18  0.100000000D+01  0.332744694D+01
 0.535973311D-01  0.638205127D-01 -0.386240393D+00  0.271050543D-19  0.000000000D+00  0.433680869D-18  0.100000000D+01  0.320388460D+01
 0.535942577D-01  0.735733722D-01 -0.384238213D+00 -0.271050543D-19  0.867361738D-18  0.000000000D+00  0.100000000D+01  0.307882094D+01
 0.535849147D-01  0.835015553D-01 -0.382277370D+00 -0.271050543D-19 -0.867361738D-18 -0.216840434D-18  0.100000000D+01  0.295294690D+01
 0.535695553D-01  0.936097139D-01 -0.380362511D+00  0.000000000D+00  0.000000000D+00  0.000000000D+00  0.100000000D+01  0.282695866D+01
 0.535486899D-01  0.103902526D+00 -0.378498107D+00  0.000000000D+00 -0.867361738D-18 -0.216840434D-18  0.100000000D+01  0.270159674D+01
 0.535225757D-01  0.114385110D+00 -0.376688421D+00  0.542101086D-19  0.433680869D-18  0.216840434D-18  0.100000000D+01  0.257757258D+01
 0.534913354D-01  0.125062694D+00 -0.374937385D+00  0.000000000D+00  0.433680869D-18  0.216840434D-18  0.100000000D+01  0.245562291D+01
 0.534545891D-01  0.135940851D+00 -0.373248339D+00  0.000000000D+00  0.000000000D+00 -0.433680869D-18  0.100000000D+01  0.233639169D+01
 0.534124002D-01  0.147025387D+00 -0.371623904D+00  0.542101086D-19  0.000000000D+00 -0.216840434D-18  0.100000000D+01  0.222043776D+01
 0.533646420D-01  0.158322167D+00 -0.370065868D+00 -0.542101086D-19  0.000000000D+00 -0.650521303D-18  0.100000000D+01  0.210823607D+01
 0.533114076D-01  0.169837481D+00 -0.368575096D+00  0.542101086D-19  0.000000000D+00  0.433680869D-18  0.100000000D+01  0.200013471D+01
 0.532526635D-01  0.181577595D+00 -0.367151529D+00 -0.542101086D-19  0.433680869D-18  0.000000000D+00  0.100000000D+01  0.189633179D+01