 title=""
 variables=x,y,THETA,J,Q11,Q12,Q21,Q22
 zone t="  0.000000000000000E+000 ",i=          81 ,j=          82
  0.481752322600000      -1.892382289000000E-002   6.24392426419730     
  1.306553447313393E-003   837.980726527926      -4.058232014150676E-002
 -4.058232014150676E-002   699.055425811208     
  0.516698086900000      -2.029653543000000E-002   6.24392426419715     
  1.436044579355302E-003   797.955402120705      -3.692281733865244E-002
 -3.692281733865244E-002   607.694825022740     
  0.552498973175000      -2.170283821250000E-002   6.24392426419500     
  1.592155587883265E-003   742.220073516151      -3.330258540523445E-002
 -3.330258540523445E-002   531.491464873809     
  0.590052938900000      -2.317800410750000E-002   6.24392426419536     
  1.783687310727417E-003   674.505144289472      -2.972663313114410E-002
 -2.972663313114410E-002   465.990743063988     
  0.629447898700000      -2.472548651000000E-002   6.24392426419689     
  1.996110825380126E-003   612.901991227608      -2.656315549116073E-002
 -2.656315549116073E-002   409.486575975960     
  0.670776381875000      -2.634892008750000E-002   6.24392426419496     
  2.231640796119994E-003   556.862146659646      -2.375964872414116E-002
 -2.375964872414116E-002   360.581731523032     
  0.714135794925000      -2.805213108500000E-002   6.24392426419293     
  2.492727213990375E-003   505.886220269530      -2.127105909155524E-002
 -2.127105909155524E-002   318.124883900601     
  0.759628701075000      -2.983914831000000E-002   6.24392426419336     
  2.782080967759103E-003   459.519511313305      -1.905872936596786E-002
 -1.905872936596786E-002   281.161929060971     
  0.807363118175000      -3.171421483750000E-002   6.24392426419438     
  3.102702294573498E-003   417.348017397213      -1.708926605400052E-002
 -1.708926605400052E-002   248.898014823822     
  0.857452835925000      -3.368180046750000E-002   6.24392426419490     
  3.457912459533733E-003   378.994798276447      -1.533379511130128E-002
 -1.533379511130128E-002   220.667697225080     
  0.910017754425000      -3.574661502250000E-002   6.24392426419575     
  3.851389063438779E-003   344.116661954341      -1.376722096123295E-002
 -1.376722096123295E-002   195.911312474651     
  0.965184245525000      -3.791362254500000E-002   6.24392426419580     
  4.287205408268496E-003   312.401148033241      -1.236768474546679E-002
 -1.236768474546679E-002   174.156142334089     
   1.02308553892500      -4.018805645750000E-002   6.24392426419884     
  4.769874391864480E-003   283.563783853792      -1.111634107731874E-002
 -1.111634107731874E-002   155.001304428725     
   1.08386213425000      -4.257543576000000E-002   6.24392426420235     
  5.304397536490655E-003   257.345580769832      -9.996297264968312E-003
 -9.996297264968312E-003   138.105558040800     
   1.14766224275000      -4.508158237250000E-002   6.24392426420616     
  5.896319763870032E-003   233.510755124995      -8.992770487648016E-003
 -8.992770487648016E-003   123.177406974170     
   1.21464225950000      -4.771263969500000E-002   6.24392426420250     
  6.551790628353339E-003   211.844653987667      -8.092968677467560E-003
 -8.092968677467560E-003   109.967023842063     
   1.28496727000000      -5.047509250000000E-002   6.24392426418376     
  7.277632865569078E-003   192.151863993683      -7.285610299346601E-003
 -7.285610299346601E-003   98.2596275303023     
   1.35881159350000      -5.337578822500000E-002   6.24392426417942     
  8.081419020828455E-003   174.254496160208      -6.561019177532934E-003
 -6.561019177532934E-003   87.8700265390336     
   1.43635936425000      -5.642195987500000E-002   6.24392426419735     
  8.971557447593542E-003   157.990615681412      -5.910131139227559E-003
 -5.910131139227559E-003   78.6381023695991     
   1.51780515850000      -5.962125070000000E-002   6.24392426419722     
  9.957388857065808E-003   143.212811271016      -5.324975181382197E-003
 -5.324975181382197E-003   70.4250551952024     
   1.60335466800000      -6.298174049999999E-002   6.24392426419707     
  1.104929450945802E-002   129.786899675766      -4.798729907727228E-003
 -4.798729907727228E-003   63.1102708526013     
   1.69322542400000      -6.651197415000000E-002   6.24392426420850     
  1.225881786995900E-002   117.590742350030      -4.325285869349660E-003
 -4.325285869349660E-003   56.5886956410114     
   1.78764757775000      -7.022099232500001E-002   6.24392426420105     
  1.359880155759687E-002   106.513165769978      -3.899048399730543E-003
 -3.899048399730543E-003   50.7686290186146     
   1.88686474300000      -7.411836445000000E-002   6.24392426418941     
  1.508354152084834E-002   96.4529797715615      -3.515212590065708E-003
 -3.515212590065708E-003   45.5698612129714     
   1.99113490550000      -7.821422447500000E-002   6.24392426419792     
  1.672896063825384E-002   87.3180863265378      -3.169528682025025E-003
 -3.169528682025025E-003   40.9220963445890     
   2.10073140375000      -8.251930952500000E-002   6.24392426419830     
  1.855280478934460E-002   79.0246646428776      -2.857961166316425E-003
 -2.857961166316425E-003   36.7636133351932     
   2.21594399275000      -8.704500152500000E-002   6.24392426419503     
  2.057486459513717E-002   71.4964278180318      -2.577088325572019E-003
 -2.577088325572019E-003   33.0401253292726     
   2.33707999675000      -9.180337252500001E-002   6.24392426419892     
  2.281722580910616E-002   64.6639502712796      -2.323827476897078E-003
 -2.323827476897078E-003   29.7038052378965     
   2.46446555625000      -9.680723375000000E-002   6.24392426419851     
  2.530455307036151E-002   58.4640529753715      -2.095378184026941E-003
 -2.095378184026941E-003   26.7124510686443     
   2.59844698500000      -0.102070188825000        6.24392426419613     
  2.806441189130812E-002   52.8392428349803      -1.889317458159789E-003
 -1.889317458159789E-003   24.0287690945164     
   2.73939224425000      -0.107606691725000        6.24392426419020     
  3.112763391851970E-002   47.7372040992584      -1.703405699119198E-003
 -1.703405699119198E-003   21.6197566540809     
   2.88769254650000      -0.113432109725000        6.24392426419250     
  3.452873257656735E-002   43.1103337803848      -1.535617579376813E-003
 -1.535617579376813E-003   19.4561695065801     
   3.04376410575000      -0.119562792250000        6.24392426419266     
  3.830637640049271E-002   38.9153190256569      -1.384186428654344E-003
 -1.384186428654344E-003   17.5120610504583     
   3.20805004625000      -0.126016145750000        6.24392426419558     
  4.250392858107778E-002   35.1127528245217      -1.247491003350643E-003
 -1.247491003350643E-003   15.7643829264721     
   3.38102248875000      -0.132810715725000        6.24392426419579     
  4.717006372069446E-002   31.6667832322545      -1.124078995787481E-003
 -1.124078995787481E-003   14.1926380146663     
   3.56318483575000      -0.139966276450000        6.24392426419184     
  5.235947332909529E-002   28.5447944580043      -1.012667504643683E-003
 -1.012667504643683E-003   12.7785784112170     
   3.75507427500000      -0.147503929275000        6.24392426419622     
  5.813367408021419E-002   25.7171167573877      -9.120829934687880E-004
 -9.120829934687880E-004   11.5059420319613     
   3.95726452750000      -0.155446210725000        6.24392426419267     
  6.456193641660818E-002   23.1567616100948      -8.212658790139882E-004
 -8.212658790139882E-004   10.3602224597892     
   4.17036887175000      -0.163817211100000        6.24392426419019     
  7.172235234969905E-002   20.8391809882958      -7.392753532180496E-004
 -7.392753532180496E-004   9.32846753565845     
   4.39504347200000      -0.172642705325000        6.24392426419151     
  7.970306589315834E-002   18.7420482423358      -6.652584701308251E-004
 -6.652584701308251E-004   8.39910276205891     
   4.63199105150000      -0.181950297250000        6.24392426419225     
  8.860369427045642E-002   16.8450583563081      -5.984328279006190E-004
 -5.984328279006190E-004   7.56177623277306     
   4.88196495175000      -0.191769579050000        6.24392426419337     
  9.853697213067053E-002   15.1297462592747      -5.381030086449856E-004
 -5.381030086449856E-004   6.80722225686972     
   5.14577362625000      -0.202132307775000        6.24392426419412     
  0.109630658307413        13.5793213440732      -4.836519981932241E-004
 -4.836519981932241E-004   6.12714124034431     
   5.42428562525000      -0.213072601150000        6.24392426419370     
  0.122029751742627        12.1785168307167      -4.345106930120912E-004
 -4.345106930120912E-004   5.51409374261966     
   5.71843513450000      -0.224627155125000        6.24392426419467     
  0.135899072683020        10.9134526336112      -3.901656613214954E-004
 -3.901656613214954E-004   4.96140690508437     
   6.02922814250000      -0.236835486175000        6.24392426419495     
  0.151426276968954        9.77151047498504      -3.501568838093494E-004
 -3.501568838093494E-004   4.46309169755800     
   6.35774932175000      -0.249740201575000        6.24392426419354     
  0.168825384549384        8.74122021476129      -3.140684444477848E-004
 -3.140684444477848E-004   4.01376964833545     
   6.70516972225000      -0.263387301575000        6.24392426419549     
  0.188340920569743        7.81215639457198      -2.815260634805028E-004
 -2.815260634805028E-004   3.60860789175465     
   7.07275539150000      -0.277826518100000        6.24392426419686     
  0.210252789477798        6.97484402480748      -2.521868818949891E-004
 -2.521868818949891E-004   3.24326151189713     
   7.46187705600000      -0.293111694975000        6.24392426419710     
  0.234882027565291        6.22067282250614      -2.257431876240834E-004
 -2.257431876240834E-004   2.91382232663331     
   7.87402101925000      -0.309301216025000        6.24392426419661     
  0.262597612565363        5.54181915065273      -2.019175832446984E-004
 -2.019175832446984E-004   2.61677333370808     
   8.31080146025000      -0.326458488175000        6.24392426419654     
  0.293824549109404        4.93117498802288      -1.804583845046170E-004
 -1.804583845046170E-004   2.34894814928943     
   8.77397434450000      -0.344652487925000        6.24392426419470     
  0.329053500984006        4.38228324828582      -1.611380527094669E-004
 -1.611380527094669E-004   2.10749486343880     
   9.26545320525000      -0.363958381200000        6.24392426419258     
  0.368852305558983        3.88927888085191      -1.437512701259608E-004
 -1.437512701259608E-004   1.88984380357431     
   9.78732709450000      -0.384458228450000        6.24392426419822     
  0.413879782481485        3.44683534150281      -1.281122726323192E-004
 -1.281122726323192E-004   1.69367875393894     
   10.3418810525000      -0.406241788925000        6.24392426420435     
  0.464902361450336        3.05011580296117      -1.140542801467415E-004
 -1.140542801467415E-004   1.51691123685785     
   10.9316195350000      -0.429407440775000        6.24392426420605     
  0.522814180505325        2.69472874360812      -1.014205710338778E-004
 -1.014205710338778E-004   1.35765751893164     
   11.5592932975000      -0.454063237100000        6.24392426420004     
  0.588661473866675        2.37668757552898      -9.007507846105212E-005
 -9.007507846105212E-005   1.21421803276780     
   12.2279303525000      -0.480328121850000        6.24392426419572     
  0.663672291803534        2.09237391073796      -7.989399395164770E-005
 -7.989399395164770E-005   1.08505894695575     
   12.9408717300000      -0.508333334850000        6.24392426418797     
  0.749292884745649        1.83850410564494      -7.076505136272698E-005
 -7.076505136272698E-005  0.968795649807070     
   13.7018129500000      -0.538224040500000        6.24392426418939     
  0.847232457057653        1.61209880155124      -6.258486771404392E-005
 -6.258486771404392E-005  0.864177940464489     
   14.5148522950000      -0.570161224250000        6.24392426420675     
  0.959518479328285        1.41045524779206      -5.525958073812620E-005
 -5.525958073812620E-005  0.770076736379366     
   15.3845472125000      -0.604323908750000        6.24392426420393     
   1.08856541805303        1.23112209876656      -4.870876259833318E-005
 -4.870876259833318E-005  0.685472138794629     
   16.3159805100000      -0.640911752750000        6.24392426419463     
   1.23726060393919        1.07187648306033      -4.285527173075038E-005
 -4.285527173075038E-005  0.609442714031490     
   17.3148383725000      -0.680148116250000        6.24392426419907     
   1.40907212990972       0.930703162896867      -3.762971302409893E-005
 -3.762971302409893E-005  0.541155854564614     
   18.3875027400000      -0.722283690000000        6.24392426419815     
   1.60818527794821       0.805775564054886      -3.297054188720200E-005
 -3.297054188720200E-005  0.479859110058726     
   19.5411612375000      -0.767600812750000        6.24392426419215     
   1.83967615668348       0.695438505378348      -2.882164305243601E-005
 -2.882164305243601E-005  0.424872388942280     
   20.7839386925000      -0.816418637500000        6.24392426419171     
   2.10973419918140       0.598192516600834      -2.513226020126741E-005
 -2.513226020126741E-005  0.375580935772901     
   22.1250553075000      -0.869099345250000        6.24392426419040     
   2.42594938532191       0.512679574369729      -2.185639836837019E-005
 -2.185639836837019E-005  0.331429006516644     
   23.5750180550000      -0.926055662750000        6.24392426418980     
   2.79768598578562       0.437670111343761      -1.895233643821846E-005
 -1.895233643821846E-005  0.291914170064696     
   25.1458537475000      -0.987760018000000        6.24392426418845     
   3.23657289791833       0.372051226478167      -1.638239184941631E-005
 -1.638239184941631E-005  0.256582170342058     
   26.8513947100000       -1.05475576175000        6.24392426418516     
   3.75715274337821       0.314815967092329      -1.411251165648122E-005
 -1.411251165648122E-005  0.225022293889218     
   28.7076315050000       -1.12767102275000        6.24392426418672     
   4.37774947726131       0.265053578744417      -1.211190473475281E-005
 -1.211190473475281E-005  0.196863190409891     
   30.7331518175000       -1.20723594825000        6.24392426418720     
   5.12164004308075       0.221940650317124      -1.035270456201803E-005
 -1.035270456201803E-005  0.171769100883044     
   32.9496911050000       -1.29430433350000        6.24392426419330     
   6.01865430285986       0.184733072196148      -8.809671988510223E-006
 -8.809671988510223E-006  0.149436452773202     
   35.3828296950000       -1.38988100550000        6.24392426419484     
   7.10738622438659       0.152758733099483      -7.460195288418181E-006
 -7.460195288418181E-006  0.129590785088358     
   38.0628839100000       -1.49515682650000        6.24392426419610     
   8.43828995838664       0.125410889344612      -6.283632036115441E-006
 -6.283632036115441E-006  0.111983971163376     
   41.0260573325000       -1.61155391750000        6.24392426420157     
   10.0780768568978       0.102142148598948      -5.261236537540750E-006
 -5.261236537540750E-006  9.639170894134688E-002
   44.3159453875000       -1.74078476075000        6.24392426420095     
   12.1160576133556       8.245901324379264E-002 -4.376246083221021E-006
 -4.376246083221021E-006  8.261125277997945E-002
   47.9855266800000       -1.88493042075000        6.24392426419903     
   14.2204163244072       7.018376552755425E-002 -3.728637930923082E-006
 -3.728637930923082E-006  7.045936312937374E-002
   51.8595142700000       -2.03710541125000        6.24392426419555     
   16.2013362173740       6.315328937973753E-002 -3.272748784411122E-006
 -3.272748784411122E-006  6.032569800568251E-002
  0.481752322600000       1.892382289000000E-002  3.926104298228272E-002
  1.306553447313381E-003   837.980726527942       4.058232014121543E-002
  4.058232014121543E-002   699.055425811208     
  0.516698086900000       2.029653543000000E-002  3.926104298243618E-002
  1.436044579355300E-003   797.955402120707       3.692281733860625E-002
  3.692281733860625E-002   607.694825022740     
  0.552498973175000       2.170283821250000E-002  3.926104298458351E-002
  1.592155587883270E-003   742.220073516146       3.330258540531261E-002
  3.330258540531261E-002   531.491464873809     
  0.590052938900000       2.317800410750000E-002  3.926104298422466E-002
  1.783687310727417E-003   674.505144289472       2.972663313114765E-002
  2.972663313114765E-002   465.990743063989     
  0.629447898700000       2.472548651000000E-002  3.926104298269759E-002
  1.996110825380123E-003   612.901991227610       2.656315549114296E-002
  2.656315549114296E-002   409.486575975960     
  0.670776381875000       2.634892008750000E-002  3.926104298462295E-002
  2.231640796119997E-003   556.862146659645       2.375964872368641E-002
  2.375964872368641E-002   360.581731523032     
  0.714135794925000       2.805213108500000E-002  3.926104298666021E-002
  2.492727213990375E-003   505.886220269530       2.127105909115734E-002
  2.127105909115734E-002   318.124883900601     
  0.759628701075000       2.983914831000000E-002  3.926104298622334E-002
  2.782080967759100E-003   459.519511313306       1.905872936595010E-002
  1.905872936595010E-002   281.161929060971     
  0.807363118175000       3.171421483750000E-002  3.926104298520702E-002
  3.102702294573498E-003   417.348017397213       1.708926605400052E-002
  1.708926605400052E-002   248.898014823822     
  0.857452835925000       3.368180046750000E-002  3.926104298468764E-002
  3.457912459533733E-003   378.994798276447       1.533379511130128E-002
  1.533379511130128E-002   220.667697225080     
  0.910017754425000       3.574661502250000E-002  3.926104298383872E-002
  3.851389063438779E-003   344.116661954341       1.376722096123295E-002
  1.376722096123295E-002   195.911312474651     
  0.965184245525000       3.791362254500000E-002  3.926104298378603E-002
  4.287205408268496E-003   312.401148033241       1.236768474546501E-002
  1.236768474546501E-002   174.156142334089     
   1.02308553892500       4.018805645750000E-002  3.926104298075050E-002
  4.769874391864480E-003   283.563783853792       1.111634107731874E-002
  1.111634107731874E-002   155.001304428725     
   1.08386213425000       4.257543576000000E-002  3.926104297723965E-002
  5.304397536490655E-003   257.345580769832       9.996297265214338E-003
  9.996297265214338E-003   138.105558040800     
   1.14766224275000       4.508158237250000E-002  3.926104297342281E-002
  5.896319763870032E-003   233.510755124995       8.992770487857626E-003
  8.992770487857626E-003   123.177406974170     
   1.21464225950000       4.771263969500000E-002  3.926104297708833E-002
  6.551790628353339E-003   211.844653987667       8.092968677467560E-003
  8.092968677467560E-003   109.967023842063     
   1.28496727000000       5.047509250000000E-002  3.926104299582810E-002
  7.277632865569080E-003   192.151863993683       7.285610299343936E-003
  7.285610299343936E-003   98.2596275303022     
   1.35881159350000       5.337578822500000E-002  3.926104300016927E-002
  8.081419020828455E-003   174.254496160208       6.561019177532934E-003
  6.561019177532934E-003   87.8700265390336     
   1.43635936425000       5.642195987500000E-002  3.926104298223258E-002
  8.971557447593526E-003   157.990615681412       5.910131139112984E-003
  5.910131139112984E-003   78.6381023695991     
   1.51780515850000       5.962125070000000E-002  3.926104298236396E-002
  9.957388857065808E-003   143.212811271016       5.324975181475899E-003
  5.324975181475899E-003   70.4250551952024     
   1.60335466800000       6.298174049999999E-002  3.926104298251374E-002
  1.104929450945802E-002   129.786899675766       4.798729907806720E-003
  4.798729907806720E-003   63.1102708526013     
   1.69322542400000       6.651197415000000E-002  3.926104297108591E-002
  1.225881786995900E-002   117.590742350030       4.325285869417606E-003
  4.325285869417606E-003   56.5886956410114     
   1.78764757775000       7.022099232500001E-002  3.926104297853446E-002
  1.359880155759688E-002   106.513165769978       3.899048399734095E-003
  3.899048399734095E-003   50.7686290186146     
   1.88686474300000       7.411836445000000E-002  3.926104299017305E-002
  1.508354152084834E-002   96.4529797715615       3.515212590016414E-003
  3.515212590016414E-003   45.5698612129714     
   1.99113490550000       7.821422447500000E-002  3.926104298166871E-002
  1.672896063825384E-002   87.3180863265378       3.169528682024136E-003
  3.169528682024136E-003   40.9220963445890     
   2.10073140375000       8.251930952500000E-002  3.926104298128720E-002
  1.855280478934460E-002   79.0246646428776       2.857961166316425E-003
  2.857961166316425E-003   36.7636133351932     
   2.21594399275000       8.704500152500000E-002  3.926104298455440E-002
  2.057486459513717E-002   71.4964278180318       2.577088325572019E-003
  2.577088325572019E-003   33.0401253292726     
   2.33707999675000       9.180337252500001E-002  3.926104298066250E-002
  2.281722580910616E-002   64.6639502712796       2.323827476897078E-003
  2.323827476897078E-003   29.7038052378965     
   2.46446555625000       9.680723375000000E-002  3.926104298107445E-002
  2.530455307036151E-002   58.4640529753715       2.095378184026941E-003
  2.095378184026941E-003   26.7124510686443     
   2.59844698500000       0.102070188825000       3.926104298345506E-002
  2.806441189130812E-002   52.8392428349803       1.889317458159789E-003
  1.889317458159789E-003   24.0287690945164     
   2.73939224425000       0.107606691725000       3.926104298939023E-002
  3.112763391851971E-002   47.7372040992584       1.703405699118754E-003
  1.703405699118754E-003   21.6197566540809     
   2.88769254650000       0.113432109725000       3.926104298708979E-002
  3.452873257656735E-002   43.1103337803848       1.535617579376813E-003
  1.535617579376813E-003   19.4561695065801     
   3.04376410575000       0.119562792250000       3.926104298693103E-002
  3.830637640049271E-002   38.9153190256569       1.384186428654344E-003
  1.384186428654344E-003   17.5120610504583     
   3.20805004625000       0.126016145750000       3.926104298400850E-002
  4.250392858107784E-002   35.1127528245216       1.247491003330881E-003
  1.247491003330881E-003   15.7643829264721     
   3.38102248875000       0.132810715725000       3.926104298379991E-002
  4.717006372069441E-002   31.6667832322546       1.124078995768496E-003
  1.124078995768496E-003   14.1926380146663     
   3.56318483575000       0.139966276450000       3.926104298774707E-002
  5.235947332909523E-002   28.5447944580044       1.012667504658116E-003
  1.012667504658116E-003   12.7785784112170     
   3.75507427500000       0.147503929275000       3.926104298336573E-002
  5.813367408021426E-002   25.7171167573877       9.120829934695651E-004
  9.120829934695651E-004   11.5059420319613     
   3.95726452750000       0.155446210725000       3.926104298691683E-002
  6.456193641660818E-002   23.1567616100948       8.212658790139882E-004
  8.212658790139882E-004   10.3602224597892     
   4.17036887175000       0.163817211100000       3.926104298939605E-002
  7.172235234969920E-002   20.8391809882957       7.392753532191598E-004
  7.392753532191598E-004   9.32846753565845     
   4.39504347200000       0.172642705325000       3.926104298807707E-002
  7.970306589315833E-002   18.7420482423358       6.652584701148934E-004
  6.652584701148934E-004   8.39910276205892     
   4.63199105150000       0.181950297250000       3.926104298733749E-002
  8.860369427045625E-002   16.8450583563082       5.984328278998419E-004
  5.984328278998419E-004   7.56177623277306     
   4.88196495175000       0.191769579050000       3.926104298621279E-002
  9.853697213067053E-002   15.1297462592747       5.381030086449856E-004
  5.381030086449856E-004   6.80722225686972     
   5.14577362625000       0.202132307775000       3.926104298547112E-002
  0.109630658307413        13.5793213440733       4.836519982026055E-004
  4.836519982026055E-004   6.12714124034431     
   5.42428562525000       0.213072601150000       3.926104298588657E-002
  0.122029751742627        12.1785168307167       4.345106930207510E-004
  4.345106930207510E-004   5.51409374261966     
   5.71843513450000       0.224627155125000       3.926104298491685E-002
  0.135899072683020        10.9134526336112       3.901656613223281E-004
  3.901656613223281E-004   4.96140690508438     
   6.02922814250000       0.236835486175000       3.926104298463148E-002
  0.151426276968954        9.77151047498501       3.501568838159552E-004
  3.501568838159552E-004   4.46309169755800     
   6.35774932175000       0.249740201575000       3.926104298604260E-002
  0.168825384549384        8.74122021476132       3.140684444422059E-004
  3.140684444422059E-004   4.01376964833545     
   6.70516972225000       0.263387301575000       3.926104298409198E-002
  0.188340920569742        7.81215639457200       2.815260634801975E-004
  2.815260634801975E-004   3.60860789175465     
   7.07275539150000       0.277826518100000       3.926104298272440E-002
  0.210252789477798        6.97484402480748       2.521868818949891E-004
  2.521868818949891E-004   3.24326151189713     
   7.46187705600000       0.293111694975000       3.926104298248558E-002
  0.234882027565291        6.22067282250614       2.257431876240834E-004
  2.257431876240834E-004   2.91382232663331     
   7.87402101925000       0.309301216025000       3.926104298297334E-002
  0.262597612565363        5.54181915065273       2.019175832446707E-004
  2.019175832446707E-004   2.61677333370808     
   8.31080146025000       0.326458488175000       3.926104298304743E-002
  0.293824549109404        4.93117498802288       1.804583845046170E-004
  1.804583845046170E-004   2.34894814928943     
   8.77397434450000       0.344652487925000       3.926104298488471E-002
  0.329053500984006        4.38228324828582       1.611380527094669E-004
  1.611380527094669E-004   2.10749486343880     
   9.26545320525000       0.363958381200000       3.926104298700302E-002
  0.368852305558983        3.88927888085191       1.437512701259608E-004
  1.437512701259608E-004   1.88984380357431     
   9.78732709450000       0.384458228450000       3.926104298136210E-002
  0.413879782481485        3.44683534150281       1.281122726323053E-004
  1.281122726323053E-004   1.69367875393894     
   10.3418810525000       0.406241788925000       3.926104297523667E-002
  0.464902361450336        3.05011580296117       1.140542801467415E-004
  1.140542801467415E-004   1.51691123685785     
   10.9316195350000       0.429407440775000       3.926104297353755E-002
  0.522814180505324        2.69472874360812       1.014205710317823E-004
  1.014205710317823E-004   1.35765751893164     
   11.5592932975000       0.454063237100000       3.926104297954759E-002
  0.588661473866675        2.37668757552898       9.007507846271745E-005
  9.007507846271745E-005   1.21421803276780     
   12.2279303525000       0.480328121850000       3.926104298387054E-002
  0.663672291803535        2.09237391073795       7.989399395171015E-005
  7.989399395171015E-005   1.08505894695575     
   12.9408717300000       0.508333334850000       3.926104299161388E-002
  0.749292884745649        1.83850410564494       7.076505136156125E-005
  7.076505136156125E-005  0.968795649807070     
   13.7018129500000       0.538224040500000       3.926104299019717E-002
  0.847232457057653        1.61209880155124       6.258486771306554E-005
  6.258486771306554E-005  0.864177940464490     
   14.5148522950000       0.570161224250000       3.926104297283108E-002
  0.959518479328285        1.41045524779206       5.525958073812620E-005
  5.525958073812620E-005  0.770076736379366     
   15.3845472125000       0.604323908750000       3.926104297565865E-002
   1.08856541805303        1.23112209876656       4.870876259833318E-005
  4.870876259833318E-005  0.685472138794629     
   16.3159805100000       0.640911752750000       3.926104298495248E-002
   1.23726060393919        1.07187648306034       4.285527173069487E-005
  4.285527173069487E-005  0.609442714031490     
   17.3148383725000       0.680148116250000       3.926104298052152E-002
   1.40907212990972       0.930703162896867       3.762971302595161E-005
  3.762971302595161E-005  0.541155854564614     
   18.3875027400000       0.722283690000000       3.926104298143155E-002
   1.60818527794821       0.805775564054884       3.297054188723669E-005
  3.297054188723669E-005  0.479859110058726     
   19.5411612375000       0.767600812750000       3.926104298743484E-002
   1.83967615668348       0.695438505378348       2.882164305306398E-005
  2.882164305306398E-005  0.424872388942280     
   20.7839386925000       0.816418637500000       3.926104298787338E-002
   2.10973419918140       0.598192516600834       2.513226020126741E-005
  2.513226020126741E-005  0.375580935772901     
   22.1250553075000       0.869099345250000       3.926104298919050E-002
   2.42594938532191       0.512679574369728       2.185639836836673E-005
  2.185639836836673E-005  0.331429006516644     
   23.5750180550000       0.926055662750000       3.926104298978369E-002
   2.79768598578562       0.437670111343761       1.895233643822193E-005
  1.895233643822193E-005  0.291914170064697     
   25.1458537475000       0.987760018000000       3.926104299113353E-002
   3.23657289791833       0.372051226478167       1.638239184941631E-005
  1.638239184941631E-005  0.256582170342058     
   26.8513947100000        1.05475576175000       3.926104299442192E-002
   3.75715274337821       0.314815967092330       1.411251165647082E-005
  1.411251165647082E-005  0.225022293889218     