 TITLE="RE   100.000000000000      PR  0.700000000000000      "
 variables=x,y,u,v,P,Vorticity,T
 ZONE T="WHOLE", I=    81, j=    82, SOLUTIONTIME=    0.0100
  0.481752322600000      -1.892382289000000E-002  0.000000000000000E+000
  0.000000000000000E+000  -346.027696299223       5.864767711239724E-015
   1.03021477925934     
  0.516698086900000      -2.029653543000000E-002  0.000000000000000E+000
  0.000000000000000E+000  -346.027696299221      -5.727004760855718E-015
  0.969785220740662     
  0.552498973175000      -2.170283821250000E-002  0.000000000000000E+000
 -4.118930119373662E-016  -346.027696299216      -2.734810893277722E-015
   1.22762901615577     
  0.590052938900000      -2.317800410750000E-002 -3.081849758464389E-016
 -1.095427018203751E-016  -346.027696299208       2.748656417428256E-015
   1.53141055153656     
  0.629447898700000      -2.472548651000000E-002 -8.733847259619276E-017
  1.782083841585763E-016  -346.027696299198       6.208347684484312E-015
   1.83169586097553     
  0.670776381875000      -2.634892008750000E-002  1.478322068722762E-016
  7.335353903818252E-016  -346.027696299184       6.185171811003384E-015
   2.11257383952429     
  0.714135794925000      -2.805213108500000E-002  6.250298319532128E-016
  6.465368616689919E-016  -346.027696299165      -3.814174076906924E-015
   2.36763561182690     
  0.759628701075000      -2.983914831000000E-002  5.614825934763428E-016
 -3.805062868717468E-017  -346.027696299143      -1.008988644527861E-014
   2.59397945005479     
  0.807363118175000      -3.171421483750000E-002 -3.350782234218865E-017
 -6.565999112302681E-016  -346.027696299123       9.296033157700718E-015
   2.79022416068221     
  0.857452835925000      -3.368180046750000E-002 -5.842036089088902E-016
  9.771948181905524E-016  -346.027696299114       1.791554433340536E-014
   2.95572824264629     
  0.910017754425000      -3.574661502250000E-002  8.761199832648726E-016
  1.202742887269166E-015  -346.027696299144      -1.721088009809868E-014
   3.09025101355439     
  0.965184245525000      -3.791362254500000E-002  1.084354980662607E-015
 -8.788866977416140E-016  -346.027696299264      -1.786990840987452E-014
   3.19380145699768     
   1.02308553892500      -4.018805645750000E-002 -7.954549233010916E-016
 -1.119796293485830E-015  -346.027696299579       9.960747512637141E-016
   3.26657707923740     
   1.08386213425000      -4.257543576000000E-002 -1.015990367816585E-015
 -1.026734635678277E-015  -346.027696300279       1.064258453749890E-014
   3.30895058825991     
   1.14766224275000      -4.508158237250000E-002 -9.326986103448115E-016
  3.118079216690667E-016  -346.027696301715       8.906086469605003E-015
   3.32148396404401     
   1.21464225950000      -4.771263969500000E-002  2.832857353818180E-016
  2.865904145658018E-016  -346.027696304505      -9.327690482949799E-015
   3.30495851082366     
   1.28496727000000      -5.047509250000000E-002  2.601457951286538E-016
 -9.754951102968857E-016  -346.027696309730      -1.888245444787034E-014
   3.26041314401909     
   1.35881159350000      -5.337578822500000E-002 -8.838759863567426E-016
 -1.510839364481461E-015  -346.027696319241       3.509047321414719E-016
   3.18918455172319     
   1.43635936425000      -5.642195987500000E-002 -1.365249669468757E-015
 -7.779052284224123E-016  -346.027696336169       2.283306753076839E-014
   3.09294323671494     
   1.51780515850000      -5.962125070000000E-002 -7.004586499927154E-016
  4.925785598066127E-016  -346.027696365749       1.240262704120980E-014
   2.97371955780855     
   1.60335466800000      -6.298174049999999E-002  4.416137552443689E-016
  4.503946749699391E-016  -346.027696416635      -8.147140269163231E-015
   2.83391424023129     
   1.69322542400000      -6.651197415000000E-002  4.017293657519437E-016
 -1.781731867222294E-016  -346.027696502994      -4.580003492684437E-015
   2.67628859080212     
   1.78764757775000      -7.022099232500001E-002 -1.579898909429898E-016
  4.193037930003581E-016  -346.027696647823      -1.122297991482352E-014
   2.50393103767849     
   1.88686474300000      -7.411836445000000E-002  3.693569217561627E-016
 -3.059467216754983E-015  -346.027696888137      -1.588397816697628E-014
   2.32019868592924     
   1.99113490550000      -7.821422447500000E-002 -2.675391708388415E-015
 -3.322460605458975E-015  -346.027697283078       1.559746023456537E-014
   2.12863511364663     
   2.10073140375000      -8.251930952500000E-002 -2.882226191047979E-015
 -7.564482729183361E-016  -346.027697926471       2.266031759462945E-014
   1.93286826132000     
   2.21594399275000      -8.704500152500000E-002 -6.505556652938827E-016
 -6.748136731599121E-016  -346.027698966192       1.926630168195477E-014
   1.73649477113673     
   2.33707999675000      -9.180337252500001E-002 -5.749669983252863E-016
  1.550697126075743E-015  -346.027700633854       1.577530228225632E-014
   1.54295898341618     
   2.46446555625000      -9.680723375000000E-002  1.308161498478975E-015
  2.421145071599480E-015  -346.027703290101      -8.159074690098243E-015
   1.35543566036731     
   2.59844698500000      -0.102070188825000       2.020945919845422E-015
  1.083072541964661E-015  -346.027707493349      -1.059770243420421E-014
   1.17672534867282     
   2.73939224425000      -0.107606691725000       8.939544490513408E-016
 -7.403155718951599E-017  -346.027714103631       1.943600020371401E-015
   1.00917004442609     
   2.88769254650000      -0.113432109725000      -6.038387018604584E-017
  9.294331114010276E-016  -346.027724438734       1.881971872263097E-015
  0.854594760468381     
   3.04376410575000      -0.119562792250000       7.486621097432857E-016
 -1.783293319793944E-016  -346.027740507897      -7.332144457344944E-015
  0.714278068511675     
   3.20805004625000      -0.126016145750000      -1.417634222924835E-016
 -2.050003279252928E-015  -346.027765360084      -3.633556522860375E-015
  0.588952021735054     
   3.38102248875000      -0.132810715725000      -1.607199570196782E-015
 -7.889526120994154E-016  -346.027803600724       2.857184027678368E-015
  0.478829441145591     
   3.56318483575000      -0.139966276450000      -6.095761194185529E-016
 -1.557790949945842E-015  -346.027862155208       4.848958322322728E-015
  0.383654587872312     
   3.75507427500000      -0.147503929275000      -1.185281558066864E-015
 -3.946978583710298E-016  -346.027951392232      -4.442050920526881E-016
  0.302771865648937     
   3.95726452750000      -0.155446210725000      -2.955082739717937E-016
 -2.891548138840034E-015  -346.028086769776      -4.261090621669088E-015
  0.235206449637884     
   4.17036887175000      -0.163817211100000      -2.128466788913396E-015
 -3.143399306833306E-015  -346.028291236988       5.771937688203958E-015
  0.179750573551230     
   4.39504347200000      -0.172642705325000      -2.272933993165825E-015
  5.556591940246013E-016  -346.028598724780       2.474981246007015E-015
  0.135049543919980     
   4.63199105150000      -0.181950297250000       3.943160667138919E-016
 -5.482689268898288E-016  -346.029059197871       3.429259448427581E-015
  9.968229119405672E-002
   4.88196495175000      -0.191769579050000      -3.814637866629756E-016
  1.856630216728096E-015  -346.029745936699       8.792386634828656E-015
  7.223230730149822E-002
   5.14577362625000      -0.202132307775000       1.265200907129250E-015
  2.863862593017568E-015  -346.030765989854      -1.554773127360065E-015
  5.134604455503457E-002
   5.42428562525000      -0.213072601150000       1.909349912963382E-015
  2.119182205038331E-015  -346.032275114336      -7.320385248762164E-015
  3.577715182550621E-002
   5.71843513450000      -0.224627155125000       1.380697249507385E-015
  8.589969949947810E-016  -346.034499038932      -7.407858115949385E-015
  2.441619211441415E-002
   6.02922814250000      -0.236835486175000       5.462447397894872E-016
 -6.959110651633091E-016  -346.037763594021       6.981723402695353E-016
  1.630661635323007E-002
   6.35774932175000      -0.249740201575000      -4.313729921668679E-016
  2.022239051856137E-015  -346.042537212040       4.611641950926872E-015
  1.064867547487515E-002
   6.70516972225000      -0.263387301575000       1.220228542305495E-015
  3.779328860055145E-015  -346.049490597645      -3.346593259252078E-015
  6.793577532474383E-003
   7.07275539150000      -0.277826518100000       2.216688795614129E-015
  2.520028925994076E-015  -346.059580096749      -1.123574945204418E-014
  4.230512487673197E-003
   7.46187705600000      -0.293111694975000       1.434540882410452E-015
 -2.717196341283549E-015  -346.074163584761      -1.160168272569943E-014
  2.569185613497195E-003
   7.87402101925000      -0.309301216025000      -1.498801043879072E-015
 -5.853368747642065E-015  -346.095160697403       6.461693976482724E-015
  1.520266213883939E-003
   8.31080146025000      -0.326458488175000      -3.123221640892591E-015
 -1.646178045728465E-015  -346.125273118005       1.169681888733712E-014
  8.757414154399068E-004
   8.77397434450000      -0.344652487925000      -8.481334683068072E-016
  8.609768830998948E-016  -346.168285607977       2.871884735253390E-017
  4.906474331428456E-004
   9.26545320525000      -0.363958381200000       4.275056800548586E-016
 -1.234597814654339E-015  -346.229474723588      -3.111243339979905E-016
  2.671138299512867E-004
   9.78732709450000      -0.384458228450000      -5.896105910734391E-016
  9.325320440851572E-016  -346.316159884421       4.664311939909968E-015
  1.411675491121791E-004
   10.3418810525000      -0.406241788925000       4.274358370866944E-016
  2.767395538069860E-015  -346.438440768171      -4.403524053684555E-016
  7.234923068608718E-005
   10.9316195350000      -0.429407440775000       1.214711821666370E-015
  7.264319058012454E-016  -346.610175895640      -2.867205082292862E-015
  3.591661604704407E-005
   11.5592932975000      -0.454063237100000       3.046256513173897E-016
  1.006720113305601E-015  -346.850269496769       1.520231573768712E-015
  1.724850071103736E-005
   12.2279303525000      -0.480328121850000       4.023180859421846E-016
  2.261194811267317E-015  -347.184346688255      -1.883682559979459E-015
  8.000842365102405E-006
   12.9408717300000      -0.508333334850000       8.589158556513314E-016
 -2.251416972360970E-015  -347.646909434315      -4.297141325964936E-015
  3.578100803060258E-006
   13.7018129500000      -0.538224040500000      -8.106319818314538E-016
 -3.926551214708619E-015  -348.284075631389       1.817442064601983E-015
  1.539369110378417E-006
   14.5148522950000      -0.570161224250000      -1.336214728404648E-015
  2.111438579301711E-016  -349.157007679681       2.303883142728356E-015
  6.354074865505716E-007
   15.3845472125000      -0.604323908750000       6.770478905623170E-017
 -7.224891081666012E-016  -350.346130229331      -7.257964138043394E-016
  2.508452754768467E-007
   16.3159805100000      -0.640911752750000      -2.176014476906038E-016
 -1.863148667522206E-015  -351.956212616758       6.439709129741523E-016
  9.436004933504507E-008
   17.3148383725000      -0.680148116250000      -5.253081287605279E-016
  6.518600398989692E-016  -354.122340788752       1.518064207971495E-015
  3.367705389311976E-008
   18.3875027400000      -0.722283690000000       1.714489903186846E-016
  1.306561231436178E-015  -357.016714990672      -8.844032339804350E-017
  1.134825095104528E-008
   19.5411612375000      -0.767600812750000       3.193975646417577E-016
  3.652566331048572E-016  -360.856070329136      -7.014708001750429E-016
  3.590998823405087E-009
   20.7839386925000      -0.816418637500000       8.267156589594544E-017
  9.329894811985511E-017  -365.909314547209      -3.110858349832639E-017
  1.060731481191979E-009
   22.1250553075000      -0.869099345250000       1.947384430818617E-017
  2.162203838222249E-017  -372.504701090634      -5.204491938154898E-016
  2.906008233615954E-010
   23.5750180550000      -0.926055662750000       4.144504872112111E-018
 -1.190142985588351E-015  -381.035504603688      -5.236023327966005E-016
  7.333104051360181E-011
   25.1458537475000      -0.987760018000000      -2.085841414798346E-016
 -1.218681165329532E-015  -391.962755579930       6.358153033141418E-016
  1.691976988046308E-011
   26.8513947100000       -1.05475576175000      -1.944021263615955E-016
  6.209723334583953E-016  -405.813164100725       5.949252786687858E-016
  3.542151703594855E-012
   28.7076315050000       -1.12767102275000       8.973213056596535E-017
  8.428951171035434E-016  -423.170004674687       1.778279458758518E-017
  6.674361726876832E-013
   30.7331518175000       -1.20723594825000       1.097888189769935E-016
  6.437650049616097E-016  -444.654584961343      -9.788249728127103E-017
  1.122539053964450E-013
   32.9496911050000       -1.29430433350000       7.519097602957373E-017
  4.956546302075783E-016  -470.896183450096      -2.467448404526657E-016
  1.670800676791750E-014
   35.3828296950000       -1.38988100550000       5.163068975684817E-017
 -4.536178238196385E-016  -502.489273426673      -9.861811704161862E-017
  2.181722324919663E-015
   38.0628839100000       -1.49515682650000      -4.190111754847364E-017
  2.903020446876408E-017  -539.938729061731       8.873932738480550E-017
  2.477578232186230E-016
   41.0260573325000       -1.61155391750000       2.363594169127877E-018
  9.840051095638128E-017  -583.596743750645       4.170967780866225E-019
  2.425729796163092E-017
   44.3159453875000       -1.74078476075000       7.016692454052939E-018
  5.012267755439701E-018  -633.599370783718       2.565018049409468E-002
  2.029995816658276E-018
   47.9855266800000       -1.88493042075000       3.109034088104704E-019
  0.178787463410745       -690.260449879031      -1.325159759182533E-002
  1.423270568872359E-019
   51.8595142700000       -2.03710541125000        2.00000000000000     
 -0.178787463410745       -709.147462270145      -0.127501379672181     
 -1.423270568872359E-019
  0.481752322600000       1.892382289000000E-002  0.000000000000000E+000
 -1.779639392832814E-016  -346.027696299224       1.570031183530191E-014
   1.03020300286265     
  0.516698086900000       2.029653543000000E-002  0.000000000000000E+000
  1.779639392832814E-016  -346.027696299224       4.774312568592643E-015
  0.969796997137350     
  0.552498973175000       2.170283821250000E-002  1.184638753497357E-016
  1.680914331361803E-016  -346.027696299222       1.942620227688858E-015
   1.22765695990448     
  0.590052938900000       2.317800410750000E-002  1.257731151668072E-016
  3.932270243742962E-016  -346.027696299219      -5.609879349878247E-015
   1.53146362252030     
  0.629447898700000       2.472548651000000E-002  3.135318747241265E-016
  6.690685520269937E-017  -346.027696299216      -1.466621005848919E-014
   1.83178373945155     
  0.670776381875000       2.634892008750000E-002  5.550452638006255E-017
 -5.197706893736677E-016  -346.027696299213      -4.205437002451518E-015
   2.11270574450160     
  0.714135794925000       2.805213108500000E-002 -4.429031578888746E-016
 -4.581250130552748E-016  -346.027696299210       6.998844216217462E-015
   2.36781981891084     
  0.759628701075000       2.983914831000000E-002 -3.978731792153977E-016
 -4.268372652765873E-016  -346.027696299210      -1.173999055000405E-015
   2.59422304745199     
  0.807363118175000       3.171421483750000E-002 -3.758933139821787E-016
 -1.005372689833075E-015  -346.027696299219       2.363623383409032E-015
   2.79053290040837     
  0.857452835925000       3.368180046750000E-002 -8.945581868770796E-016
 -5.938796969300758E-016  -346.027696299248       1.133104368428931E-014
   2.95610643438381     
  0.910017754425000       3.574661502250000E-002 -5.324749090668247E-016
 -2.236468200150782E-016  -346.027696299321       1.420762994607596E-014
   3.09070144110201     
  0.965184245525000       3.791362254500000E-002 -2.016414239927041E-016
 -2.039120719038331E-016  -346.027696299482       2.490648547112496E-015
   3.19432531480820     
   1.02308553892500       4.018805645750000E-002 -1.845627470650554E-016
 -5.023805350469109E-016  -346.027696299814      -8.700813664904784E-015
   3.26717391809736     
   1.08386213425000       4.257543576000000E-002 -4.558288898115984E-016
 -4.606297579513954E-016  -346.027696300467      -2.464373259806159E-015
   3.30961827463868     
   1.14766224275000       4.508158237250000E-002 -4.184596773004766E-016
 -4.230155214317656E-016  -346.027696301704      -1.192593300667752E-015
   3.32221867822223     
   1.21464225950000       4.771263969500000E-002 -3.843371657037877E-016
 -3.888040849185568E-016  -346.027696303989       4.191951900464899E-015
   3.30575477570482     
   1.28496727000000       5.047509250000000E-002 -3.529429253745085E-016
 -3.574232453369743E-016  -346.027696308121      -1.094825198789604E-015
   3.26126390073403     
   1.35881159350000       5.337578822500000E-002 -3.238676145738450E-016
 -9.429122453964012E-016  -346.027696315459      -7.552771713196518E-015
   3.19008127498383     
   1.43635936425000       5.642195987500000E-002 -8.520861717157003E-016
 -2.566085134770595E-016  -346.027696328292       4.633724825086382E-017
   3.09387609190395     
   1.51780515850000       5.962125070000000E-002 -2.310709096420574E-016
  9.702870538105342E-016  -346.027696350437       1.088320860864148E-015
   2.97467763391400     
   1.60335466800000       6.298174049999999E-002  8.699327094699675E-016
  8.871927401795711E-016  -346.027696388206      -3.271205018166279E-016
   2.83488584503909     
   1.69322542400000       6.651197415000000E-002  7.913645111372066E-016
  2.569190858107372E-016  -346.027696451941      -3.140439827389768E-015
   2.67726157898525     
   1.78764757775000       7.022099232500001E-002  2.278250578457299E-016
 -3.477375961631476E-016  -346.027696558467      -1.736470293343922E-014
   2.50489318167504     
   1.88686474300000       7.411836445000000E-002 -3.063283342576943E-016
 -3.753896218679208E-015  -346.027696734957      -6.106988935958125E-015
   2.32113808466782     
   1.99113490550000       7.821422447500000E-002 -3.282780132666744E-015
 -2.818940286222037E-015  -346.027697025002       5.165108545875326E-015
   2.12954058131411     
   2.10073140375000       8.251930952500000E-002 -2.445524054183598E-015
 -3.048126714807748E-016  -346.027697498097       4.678266542065057E-015
   1.93372969727352     
   2.21594399275000       8.704500152500000E-002 -2.621536808200235E-016
 -2.719178109483674E-016  -346.027698264369       1.513791544326775E-014
   1.73730349861040     
   2.33707999675000       9.180337252500001E-002 -2.316937290276846E-016
  2.042286671148638E-015  -346.027699497347       3.580693705526843E-015
   1.54370801135216     
   2.46446555625000       9.680723375000000E-002  1.722933525752069E-015
  7.442366916433715E-016  -346.027701468991      -5.456127416249883E-015
   1.35611986515932     
   2.59844698500000       0.102070188825000       6.212440567401716E-016
 -3.838527707775998E-016  -346.027704603320       3.120861721209469E-015
   1.17734156042594     
   2.73939224425000       0.107606691725000      -3.168397485636298E-016
  6.810452666184764E-016  -346.027709558146      -1.529138325834571E-015
   1.00971703282043     
   2.88769254650000       0.113432109725000       5.555165670385677E-016
 -4.067688698690894E-016  -346.027717349093      -1.399114978591436E-015
  0.855073133861084     
   3.04376410575000       0.119562792250000      -3.276666447136920E-016
  5.637050729762116E-016  -346.027729536956       4.948211729452544E-015
  0.714690088746774     
   3.20805004625000       0.126016145750000       4.481361633702786E-016
  4.172883876938096E-016  -346.027748509557      -1.041468190258908E-014
  0.589301353022921     
   3.38102248875000       0.132810715725000       3.271658912067852E-016
 -2.432199250696689E-015  -346.027777903953      -1.575352082637133E-014
  0.479120856263227     
   3.56318483575000       0.139966276450000      -1.879284224578881E-015
 -2.918846321132253E-015  -346.027823236308       9.809686167491217E-017
  0.383893650735139     
   3.75507427500000       0.147503929275000      -2.220954649338116E-015
 -1.509338799922589E-015  -346.027892837672       1.304978724412644E-014
  0.302964612266046     
   3.95726452750000       0.155446210725000      -1.130075701407660E-015
  3.065640911222853E-015  -346.027999238577       9.321759578926575E-015
  0.235359088161935     
   4.17036887175000       0.163817211100000       2.256698143829743E-015
  3.282483526083640E-015  -346.028161209326      -1.397808092295909E-014
  0.179869218976143     
   4.39504347200000       0.172642705325000       2.373588187766687E-015
 -6.482492463437915E-016  -346.028406754200      -1.334913050194339E-014
  0.135139998436851     
   4.63199105150000       0.181950297250000      -4.600376122097992E-016
 -1.287601025344827E-015  -346.028777487440       4.368746125487029E-015
  9.974987784692020E-002
   4.88196495175000       0.191769579050000      -8.958930166616837E-016
  1.290940233643313E-015  -346.029335002010       5.508135169266826E-015
  7.228175871526629E-002
   5.14577362625000       0.202132307775000       8.797416890833966E-016
  2.437993607627818E-015  -346.030170099461       3.582825032013750E-015
  5.138144379933451E-002
   5.42428562525000       0.213072601150000       1.625476393097929E-015
  1.804050474306531E-015  -346.031416108476       1.092760474814113E-015
  3.580191980721160E-002
   5.71843513450000       0.224627155125000       1.175420871202362E-015
  6.300393116197882E-016  -346.033268018551       2.852519751612070E-015
  2.443311313419099E-002
   6.02922814250000       0.236835486175000       4.006615073481634E-016
  1.675147230171194E-015  -346.036009842986       7.689556544065556E-015
  1.631789177999609E-002
   6.35774932175000       0.249740201575000       1.038403964000777E-015
  3.677027168203463E-015  -346.040053567193       2.846903471657094E-015
  1.065599551911314E-002
   6.70516972225000       0.263387301575000       2.218806685081698E-015
  2.435234043158823E-015  -346.045994317803      -6.389556892347190E-015
  6.798201815103093E-003
   7.07275539150000       0.277826518100000       1.428382382205752E-015
 -6.649556792205203E-016  -346.054688111821      -1.089397857175316E-014
  4.233351532383372E-003
   7.46187705600000       0.293111694975000      -3.785416200405529E-016
 -4.788281545783653E-015  -346.067360845660      -1.238827922710319E-015
  2.570877286917098E-003
   7.87402101925000       0.309301216025000      -2.641289322299284E-015
 -9.647637441135687E-016  -346.085760222176       4.529842796254056E-015
  1.521243155019042E-003
   8.31080146025000       0.326458488175000      -5.147910962273995E-016
  1.361385817245188E-015  -346.112366279057      -3.363001050341857E-015
  8.762874139476182E-004
   8.77397434450000       0.344652487925000       7.014255032673476E-016
 -1.030908788824322E-015  -346.150681286533      -4.047695020104698E-015
  4.909422978272696E-004
   9.26545320525000       0.363958381200000      -5.118979397014752E-016
 -2.327125007036522E-015  -346.205626249925       2.634050050334873E-015
  2.672674594616568E-004
   9.78732709450000       0.384458228450000      -1.111404209057161E-015
  3.233351334296548E-016  -346.284079291631       4.186082395693809E-015
  1.412446461336263E-004
   10.3418810525000       0.406241788925000       1.482082678911571E-016
  2.440216442003126E-015  -346.395600948273      -1.707081860813137E-015
  7.238643395521416E-005
   10.9316195350000       0.429407440775000       1.071130923505194E-015
 -2.597886895307335E-015  -346.553402924162      -9.103405998015155E-016
  3.593384897023113E-005
   11.5592932975000       0.454063237100000      -1.089441242485642E-015
 -6.357872814661108E-016  -346.775629874069       5.401700547836229E-015
  1.725614991030089E-005
   12.2279303525000       0.480328121850000      -2.540881976946239E-016
  3.868169642988449E-015  -347.087037732253      -8.924377720185463E-016
  8.004090184995005E-006
   12.9408717300000       0.508333334850000       1.469365497266983E-015
 -1.598274607234592E-015  -347.521165733634      -5.400712097063224E-015
  3.579417620831085E-006
   13.7018129500000       0.538224040500000      -5.754806567304552E-016
 -3.648716204978828E-015  -348.123110452893      -3.755732351162515E-016
  1.539878042222494E-006
   14.5148522950000       0.570161224250000      -1.241699373439828E-015
 -1.465185144717727E-015  -348.953015514392       8.629001295689071E-016
  6.355946608478399E-007
   15.3845472125000       0.604323908750000      -4.698342756172875E-016
 -1.355147390445404E-015  -350.090385023292       3.259206775272873E-016
  2.509106698128903E-007
   16.3159805100000       0.640911752750000      -4.081578322085531E-016
 -4.783840753696959E-016  -351.639305081193       9.857291966026402E-016
  9.438171558869972E-008
   17.3148383725000       0.680148116250000      -1.348821041520690E-016
  1.106738543018235E-015  -353.734606416058       6.916056218877875E-016
  3.368384888772187E-008
   18.3875027400000       0.722283690000000       2.910961795593691E-016
  1.444824591011157E-015  -356.548910232225      -1.263489660948767E-016
  1.135026418950274E-008
   19.5411612375000       0.767600812750000       3.532057421074115E-016
  4.039089426828871E-016  -360.300355191847       5.165240885667529E-016
  3.591561049073558E-009
   20.7839386925000       0.816418637500000       9.142231784589218E-017
  1.763188127074516E-015  -365.260592086491      -5.928045645585541E-017
  1.060879066501203E-009
   22.1250553075000       0.869099345250000       3.680308492201268E-016
  4.086189836750260E-016  -371.762343527421      -1.551845820826680E-015
  2.906371160723499E-010
   23.5750180550000       0.926055662750000       7.832584905852985E-017
 -2.304043538864906E-015  -380.205457210701      -5.552951014599162E-016
  7.333936606658173E-011
   25.1458537475000       0.987760018000000      -4.038158050008300E-016
 -1.426265503190243E-015  -391.059948563723       5.885183097003816E-016
  1.692154241039091E-011
   26.8513947100000        1.05475576175000      -2.275211211023033E-016
 -2.353073235383502E-016  -404.864076765132       6.094394989459388E-016
  3.542499805867220E-012
   28.7076315050000        1.12767102275000      -3.400333794746819E-017
  7.608315554025493E-016  -422.215116518531       1.147230898989049E-016
  6.674987898568646E-013
   30.7331518175000        1.20723594825000       9.910223026868765E-017
  9.559058853101949E-017  -443.750323333678      -4.372354147993095E-017
  1.122641415790008E-013
   32.9496911050000        1.29430433350000       1.116513022400139E-017
  4.364868465671770E-016  -470.115855596816       5.516926085225217E-017
  1.670951457515270E-014
   35.3828296950000        1.38988100550000       4.546845418311282E-017
  2.063695456533383E-016  -501.922384290497      -6.132211075277024E-017
  2.181920669365679E-015
   38.0628839100000        1.49515682650000       1.906300434191214E-017
  7.980458304670794E-017  -539.688082637258       4.599583435097938E-017
  2.477809085244611E-016
   41.0260573325000        1.61155391750000       6.497718162041873E-018
  4.878427029055821E-016  -583.772871129837      -1.185358231264577E-017
  2.425965307640770E-017
   44.3159453875000        1.74078476075000       3.478765109288483E-017
  2.484944667191921E-017  -634.312231279497       2.565018049409462E-002
  2.030204441344511E-018
   47.9855266800000        1.88493042075000       1.541409864142277E-018
  0.178787463410745       -688.974789339102      -3.407656876314883E-002
  1.423429543004862E-019
   51.8595142700000        2.03710541125000        2.00000000000000     
 -0.178787463410745       -707.195687902791      -0.186764610008107     
 -1.423429543004862E-019
  0.478779217425000       5.666167574999999E-002  0.000000000000000E+000
 -9.064114120634840E-017  -346.027696299225       7.851193089965813E-015
   1.03004733683255     
  0.513509316075000       6.077184912000001E-002  0.000000000000000E+000
  9.064114120634840E-017  -346.027696299225       2.503326740045400E-015
  0.969952663167447     
  0.549089259350000       6.498259832750000E-002  6.033632265028082E-017
  8.561284777332288E-017  -346.027696299224       3.830026812434243E-015
   1.22467313036737     
  0.586411463050000       6.939953734000000E-002  6.405907562754227E-017
  3.217174567387975E-016  -346.027696299223      -2.425190982146186E-016
   1.52598011310057     
  0.625563299250000       7.403300630500000E-002  2.565147932849093E-016
  5.132315501416557E-018  -346.027696299223      -1.878069009332875E-015
   1.82417197340034     
  0.666636726200000       7.889388813749999E-002  4.257655788126250E-018
  4.475886312870803E-018  -346.027696299225      -5.488154314957670E-015
   2.10324465873095     
  0.709728549275000       8.399363938500000E-002  3.813953842649893E-018
  2.267443261995337E-017  -346.027696299231      -1.963887781933020E-014
   2.35674652889798     
  0.754940698725000       8.934432308499998E-002  1.969230086477043E-017
 -5.740077007363109E-016  -346.027696299246      -1.713666243749916E-014
   2.58175214887070     
  0.802380525775000       9.495864383750000E-002 -5.054978893480380E-016
 -1.137367395687127E-015  -346.027696299282       4.169239912651671E-015
   2.77686525443258     
  0.852161117875000       0.100849985117500      -1.012002587740392E-015
 -7.130930776823857E-016  -346.027696299357       1.440625907410046E-014
   2.94143367294080     
  0.904401635175000       0.107032449072500      -6.393611017104287E-016
  2.991558667517078E-016  -346.027696299508       6.301293690265995E-015
   3.07520844523783     
  0.959227669650000       0.113520899020000       2.697204373881813E-016
  2.727581914861670E-016  -346.027696299800      -7.611757410986964E-015
   3.17819158461679     
   1.01677162862500       0.120331004857500       2.468756149132711E-016