 TITLE="RE   100.000000000000      PR  0.700000000000000      "
 variables=x,y,u,v,P,Vorticity,T
 ZONE T="WHOLE", I=    80, j=    81, SOLUTIONTIME=    0.0100
  0.500000000000000       0.000000000000000E+000  0.000000000000000E+000
  0.000000000000000E+000  -346.027696299223       0.000000000000000E+000
   1.00000000000000     
  0.535000000000000       0.000000000000000E+000  2.961596883743392E-017
 -1.645940987947615E-017  -346.027696299221       0.000000000000000E+000
   1.09871704848456     
  0.571712898200000       0.000000000000000E+000 -1.598699633247400E-017
  9.970685938183799E-018  -346.027696299216       0.000000000000000E+000
   1.37954003752928     
  0.610224498600000       0.000000000000000E+000  1.094538536207552E-017
  1.321998904787992E-016  -346.027696299211       0.000000000000000E+000
   1.68158844362099     
  0.650625099400000       0.000000000000000E+000  1.073825338450681E-016
  1.147199850923583E-016  -346.027696299203       0.000000000000000E+000
   1.97218979611324     
  0.693009748200000       0.000000000000000E+000  9.636585182916922E-017
  1.005441374054686E-016  -346.027696299193       0.000000000000000E+000
   2.24018375369091     
  0.737478512700000       0.000000000000000E+000  8.643402208132081E-017
 -6.911901133751121E-017  -346.027696299182       0.000000000000000E+000
   2.48091448206113     
  0.784136770100000       0.000000000000000E+000 -6.144793051585554E-017
 -5.317151237567763E-016  -346.027696299174       0.000000000000000E+000
   2.69223988964934     
  0.833095514100000       0.000000000000000E+000 -4.720407330275843E-016
 -3.196643699507167E-016  -346.027696299176       0.000000000000000E+000
   2.87314793453017     
  0.884471683600000       0.000000000000000E+000 -2.837791803969805E-016
  3.406027971286411E-016  -346.027696299207       0.000000000000000E+000
   3.02319678292163     
  0.938388512200000       0.000000000000000E+000  3.065896577169877E-016
 -2.592567559783986E-017  -346.027696299303       0.000000000000000E+000
   3.14226980661557     
  0.994975902100000       0.000000000000000E+000 -2.432602842406103E-017
 -6.762438995445471E-016  -346.027696299535       0.000000000000000E+000
   3.23046944228516     
   1.05437082400000       0.000000000000000E+000 -6.129592319985827E-016
 -7.773853055406033E-016  -346.027696300035       0.000000000000000E+000
   3.28807996505834     
   1.11671774300000       0.000000000000000E+000 -7.057443863183679E-016
 -3.996429983480927E-016  -346.027696301041       0.000000000000000E+000
   3.31556787629121     
   1.18216907600000       0.000000000000000E+000 -3.630524294918144E-016
 -5.335531752886348E-017  -346.027696302978       0.000000000000000E+000
   3.31360398219868     
   1.25088568200000       0.000000000000000E+000 -4.846214014195612E-017
 -3.587830064966538E-016  -346.027696306587       0.000000000000000E+000
   3.28309758282040     
   1.32303738500000       0.000000000000000E+000 -3.251351827941106E-016
 -9.466674913779305E-016  -346.027696313138       0.000000000000000E+000
   3.22523571786503     
   1.39880354100000       0.000000000000000E+000 -8.562698605287612E-016
 -8.720663379443335E-016  -346.027696324790       0.000000000000000E+000
   3.14152128883148     
   1.47837363400000       0.000000000000000E+000 -7.872163502048075E-016
  1.070879679294188E-016  -346.027696345162       0.000000000000000E+000
   3.03380413008536     
   1.56194793600000       0.000000000000000E+000  9.500422626989090E-017
  7.001132571916643E-016  -346.027696380257       0.000000000000000E+000
   2.90429931924823     
   1.64973819800000       0.000000000000000E+000  6.261600854008717E-016
  3.540833285595045E-016  -346.027696439944       0.000000000000000E+000
   2.75558756376444     
   1.74196840600000       0.000000000000000E+000  3.157322609479726E-016
  3.757802398142957E-017  -346.027696540306       0.000000000000000E+000
   2.59059359728522     
   1.83887559100000       0.000000000000000E+000  3.321593860030213E-017
 -1.685449309649245E-015  -346.027696707346       0.000000000000000E+000
   2.41254024748765     
   1.94071070600000       0.000000000000000E+000 -1.473785813389172E-015
 -3.238691081778800E-015  -346.027696982793       0.000000000000000E+000
   2.22487811638945     
   2.04773957000000       0.000000000000000E+000 -2.821480521571684E-015
 -1.800665459020031E-015  -346.027697433162       0.000000000000000E+000
   2.03119341338857     
   2.16024388900000       0.000000000000000E+000 -1.560114897836371E-015
 -5.019981071268476E-016  -346.027698163782       0.000000000000000E+000
   1.83509905708516     
   2.27852236700000       0.000000000000000E+000 -4.298425183667192E-016
  6.615630782790255E-016  -346.027699340441       0.000000000000000E+000
   1.64011631612887     
   2.40289190200000       0.000000000000000E+000  5.561085742195182E-016
  1.689591390116808E-015  -346.027701222573       0.000000000000000E+000
   1.44955563007374     
   2.53368888900000       0.000000000000000E+000  1.418321250204159E-015
  9.661503836074781E-016  -346.027704213940       0.000000000000000E+000
   1.26640560865635     
   2.67127063700000       0.000000000000000E+000  8.048261692683262E-016
  3.265583701540053E-016  -346.027708939612       0.000000000000000E+000
   1.09323849658632     
   2.81601690100000       0.000000000000000E+000  2.680618493350582E-016
  2.824194877402247E-016  -346.027716362401       0.000000000000000E+000
  0.932138742893995     
   2.96833156400000       0.000000000000000E+000  2.290320404705289E-016
  2.270099956321889E-016  -346.027727958170       0.000000000000000E+000
  0.784659012896978     
   3.12864446400000       0.000000000000000E+000  1.818420515268472E-016
 -3.118347876405754E-016  -346.027745978624       0.000000000000000E+000
  0.651805383004106     
   3.29741338700000       0.000000000000000E+000 -2.434152344780505E-016
 -1.213466688588806E-015  -346.027773843579       0.000000000000000E+000
  0.534050918041698     
   3.47512625400000       0.000000000000000E+000 -9.422235057468575E-016
 -1.924447283468550E-015  -346.027816724048       0.000000000000000E+000
  0.431374634004067     
   3.66230351100000       0.000000000000000E+000 -1.473774137850603E-015
 -1.595168482342928E-015  -346.027882405355       0.000000000000000E+000
  0.343321179130609     
   3.85950075500000       0.000000000000000E+000 -1.207955045696108E-015
 -4.324859714777000E-016  -346.027982559564       0.000000000000000E+000
  0.269075503928700     
   4.06731161300000       0.000000000000000E+000 -3.243381551157767E-016
  7.829424790828833E-017  -346.028134613667       0.000000000000000E+000
  0.207546332581798     
   4.28637091800000       0.000000000000000E+000  5.722138737930223E-017
  1.162354173278596E-017  -346.028364481323       0.000000000000000E+000
  0.157452333721051     
   4.51735820200000       0.000000000000000E+000  8.733162276238686E-018
 -4.821150011384614E-016  -346.028710541073       0.000000000000000E+000
  0.117405427849452     
   4.76100156000000       0.000000000000000E+000 -3.357695872051416E-016
  3.279251245341882E-016  -346.029229406005       0.000000000000000E+000
  8.598655876443537E-002
   5.01808191900000       0.000000000000000E+000  2.168964482219968E-016
  2.112356662754199E-015  -346.030004257006       0.000000000000000E+000
  6.181038859278340E-002
   5.28943776900000       0.000000000000000E+000  1.419942225568489E-015
  2.306272219997562E-015  -346.031156828032       0.000000000000000E+000
  4.357663999677173E-002
   5.57597041600000       0.000000000000000E+000  1.522736106692765E-015
  1.353067246489858E-015  -346.032864570074       0.000000000000000E+000
  3.010709422033074E-002
   5.87864982500000       0.000000000000000E+000  8.757560919618495E-016
  6.170681179056136E-016  -346.035385123623       0.000000000000000E+000
  2.036845334545783E-002
   6.19852113000000       0.000000000000000E+000  3.884843047428899E-016
  1.669625596266871E-015  -346.039091054060       0.000000000000000E+000
  1.348229478180361E-002
   6.53671191000000       0.000000000000000E+000  1.011516549805276E-015
  2.978457280818392E-015  -346.044518923670       0.000000000000000E+000
  8.724112585391443E-003
   6.89444032100000       0.000000000000000E+000  1.771026601301769E-015
  2.017409037496881E-015  -346.052438281005       0.000000000000000E+000
  5.513910841908511E-003
   7.27302423100000       0.000000000000000E+000  1.175267610047445E-015
 -1.412601160073412E-015  -346.063948159748       0.000000000000000E+000
  3.400981730117715E-003
   7.67389148000000       0.000000000000000E+000 -7.710227759521140E-016
 -3.580902594705709E-015  -346.080611337500       0.000000000000000E+000
  2.045393067329319E-003
   8.09859144900000       0.000000000000000E+000 -1.944525775824586E-015
 -1.775731180059728E-015  -346.104640079160       0.000000000000000E+000
  1.198384549572626E-003
   8.54880812500000       0.000000000000000E+000 -9.461801755398624E-016
 -1.136810335519261E-016  -346.139151572893       0.000000000000000E+000
  6.834046400894102E-004
   9.02637490200000       0.000000000000000E+000 -5.777505617151904E-017
 -9.329136818538219E-016  -346.188516967006       0.000000000000000E+000
  3.789927550957646E-004
   9.53329139200000       0.000000000000000E+000 -4.463517649443041E-016
 -5.764639110440122E-016  -346.258835037391       0.000000000000000E+000
  2.041983711646872E-004
   10.0717425700000       0.000000000000000E+000 -2.813426737881871E-016
  1.615869789396949E-015  -346.358570223124       0.000000000000000E+000
  1.067869649717767E-004
   10.6441206400000       0.000000000000000E+000  7.153717125373539E-016
  8.340392476417240E-016  -346.499405134061       0.000000000000000E+000
  5.414653241464414E-005
   11.2530500800000       0.000000000000000E+000  3.752567885008278E-016
 -3.751305394166499E-016  -346.697369547660       0.000000000000000E+000
  2.658877890965336E-005
   11.9014164600000       0.000000000000000E+000 -1.591464257301730E-016
  1.625074321523814E-015  -346.974320947836       0.000000000000000E+000
  1.262739579285892E-005
   12.5923996300000       0.000000000000000E+000  6.191278102914688E-016
  5.699182186650509E-016  -347.359864897114       0.000000000000000E+000
  5.790612743497189E-006
   13.3295121800000       0.000000000000000E+000  2.355421785891014E-016
 -2.856239749820752E-015  -347.893815313058       0.000000000000000E+000
  2.559191394123064E-006
   14.1166440300000       0.000000000000000E+000 -9.910066851015961E-016
 -2.207327176618750E-015  -348.629302319589       0.000000000000000E+000
  1.087562324999831E-006
   14.9581145300000       0.000000000000000E+000 -7.450108971013830E-016
 -8.329194463498902E-016  -349.636634611674       0.000000000000000E+000
  4.431895231720371E-007
   15.8587333900000       0.000000000000000E+000 -2.569721916150532E-016
 -1.104792310375977E-015  -351.008008237644       0.000000000000000E+000
  1.726244275533704E-007
   16.8238722900000       0.000000000000000E+000 -3.214873782029385E-016
 -1.457335399936745E-016  -352.863116225690       0.000000000000000E+000
  6.402566692614661E-008
   17.8595495600000       0.000000000000000E+000 -4.941126575863584E-017
  1.127496101341135E-015  -355.355643106927       0.000000000000000E+000
  2.251485448034741E-008
   18.9725305600000       0.000000000000000E+000  2.837871191568058E-016
  8.801378495587697E-016  -358.680512685970       0.000000000000000E+000
  7.470268753256665E-009
   20.1704475000000       0.000000000000000E+000  2.116742976227517E-016
  6.564131627455288E-016  -363.081583038671       0.000000000000000E+000
  2.326042605042957E-009
   21.4619430400000       0.000000000000000E+000  1.403996443175377E-016
  5.716820243129048E-016  -368.859237812939       0.000000000000000E+000
  6.757121217817820E-010
   22.8568435400000       0.000000000000000E+000  1.174937618647387E-016
 -7.659863755990023E-016  -376.377001608111       0.000000000000000E+000
  1.819770865035322E-010
   24.3663692100000       0.000000000000000E+000 -1.324823981375057E-016
 -1.534783298243258E-015  -386.065916489511       0.000000000000000E+000
  4.512792971775938E-011
   26.0033907900000       0.000000000000000E+000 -2.585807984861408E-016
 -5.648204146499326E-016  -398.424986252377       0.000000000000000E+000
  1.023149095007902E-011
   27.7827451200000       0.000000000000000E+000 -9.154861371135043E-017
  4.973479206065345E-016  -414.015590514769       0.000000000000000E+000
  2.104896618001656E-012
   29.7216261200000       0.000000000000000E+000  6.615496046604457E-017
  5.857705664996805E-016  -433.447507372060       0.000000000000000E+000
  3.898632523799984E-013
   31.8400729400000       0.000000000000000E+000  7.381178887481406E-017
  4.178742675668461E-016  -457.354236835483       0.000000000000000E+000
  6.448389207962901E-014
   34.1615848100000       0.000000000000000E+000  4.586381254838403E-017
  1.712232996521138E-016  -486.355924191020       0.000000000000000E+000
  9.445291084338887E-015
   36.7139025600000       0.000000000000000E+000  1.856525768334987E-017
 -3.460337266270704E-017  -521.009617354040       0.000000000000000E+000
  1.214795431507107E-015
   39.5300121100000       0.000000000000000E+000 -3.494200218847938E-018
  1.737695003443589E-016  -561.749106644868       0.000000000000000E+000
  1.360139206952807E-016
   42.6494470700000       0.000000000000000E+000  1.266641396952688E-017
  1.540262320723306E-016  -608.820304235924       0.000000000000000E+000
  1.314428782401035E-017
   46.1200000000000       0.000000000000000E+000  1.091416420497263E-017
  8.939373170537274E-002  -661.786710320337       0.000000000000000E+000
  1.086217567297627E-018
   50.0000000000000       0.000000000000000E+000   1.00000000000000     
  0.000000000000000E+000  -698.894597347767       0.000000000000000E+000
  6.018531076210112E-036
  0.498450409500000       3.922035832000000E-002  0.000000000000000E+000
  0.000000000000000E+000  -346.027696299224       0.000000000000000E+000
   1.00000000000000     
  0.533341938100000       4.196578340000000E-002  4.470004950000412E-017
  1.305773403497832E-016  -346.027696299224       0.000000000000000E+000
   1.09801993764416     
  0.569941056400000       4.484556945000000E-002  9.215809719859150E-017
  2.421621905056492E-016  -346.027696299222       0.000000000000000E+000
   1.37744345647318     
  0.608333302400000       4.786644698000000E-002  1.899697147008463E-016
  1.967459129543024E-016  -346.027696299220       0.000000000000000E+000
   1.67834986211819     
  0.648608694400000       5.103549906000000E-002  1.574522125443061E-016
 -1.108139080891702E-016  -346.027696299219       0.000000000000000E+000
   1.96797652902111     
  0.690861985500000       5.436018129000000E-002 -9.483175546950899E-017
 -2.376863458740296E-016  -346.027696299220       0.000000000000000E+000
   2.23512918776035     
  0.735192933300000       5.784834305000000E-002 -2.043175205992130E-016
 -3.590738866120549E-016  -346.027696299224       0.000000000000000E+000
   2.47513538603288     
  0.781706588200000       6.150825019000000E-002 -3.148930204202109E-016
 -7.858962628832752E-016  -346.027696299239       0.000000000000000E+000
   2.68584333779091     
  0.830513600300000       6.534860916000000E-002 -6.969879944869221E-016
 -8.624282150331659E-016  -346.027696299276       0.000000000000000E+000
   2.86623456554139     
  0.881730545700000       6.937859271000001E-002 -7.695991963486813E-016
 -3.078659319689579E-016  -346.027696299358       0.000000000000000E+000
   3.01586249841611     
  0.935480276200000       7.360786738000000E-002 -2.759392493454441E-016
  3.608879157974087E-017  -346.027696299528       0.000000000000000E+000
   3.13460669644121     
  0.991892291600000       7.804662280000001E-002  3.259797031092321E-017
 -2.434105046729816E-016  -346.027696299862       0.000000000000000E+000
   3.22256626242155     
   1.05110313800000       8.270560303000001E-002 -2.208938200994698E-016
 -5.389606339259967E-016  -346.027696300499       0.000000000000000E+000
   3.28002231664275     
   1.11325683200000       8.759614001000000E-002 -4.893288265479605E-016
 -4.947409925456242E-016  -346.027696301683       0.000000000000000E+000
   3.30743816438792     
   1.17850532000000       9.273018948000000E-002 -4.494722850578103E-016
 -4.153032415173597E-016  -346.027696303837       0.000000000000000E+000
   3.30548118913097     
   1.24700896000000       9.812036930000000E-002 -3.771706488957506E-016
 -7.202395914529994E-017  -346.027696307686       0.000000000000000E+000
   3.27505688066417     
   1.31893705300000       0.103780000700000      -6.559009995482226E-017
  2.434530830639175E-016  -346.027696314460       0.000000000000000E+000
   3.21734793989160     
   1.39446839500000       0.109723152200000       2.203114146770215E-016
  2.235879237088319E-016  -346.027696326223       0.000000000000000E+000
   3.13385227855137     
   1.47379188700000       0.115964687300000       2.017080025971978E-016
  2.050896915405239E-016  -346.027696346410       0.000000000000000E+000
   3.02641400982013     
   1.55710717700000       0.122520315500000       1.842959189572849E-016
  1.877565716372139E-016  -346.027696380682       0.000000000000000E+000
   2.89724172336506     
   1.64462536100000       0.129406646500000       1.679267013121664E-016
 -1.137712772090346E-016  -346.027696438308       0.000000000000000E+000
   2.74890887761196     
   1.73656973100000       0.136641250100000      -1.004178549464889E-016
 -6.789595200174165E-016  -346.027696534342       0.000000000000000E+000
   2.58433225955118     
   1.83317658300000       0.144242719200000      -5.992945001024884E-016
 -1.192621310418579E-015  -346.027696693075       0.000000000000000E+000
   2.40672618315059     
   1.93469609200000       0.152230738600000      -1.045998458265106E-015
 -1.645844607420601E-015  -346.027696953449       0.000000000000000E+000
   2.21953234878854     
   2.04139325400000       0.160626159300000      -1.432820308494813E-015
 -1.761740156661067E-015  -346.027697377519       0.000000000000000E+000
   2.02632790143923     
   2.15354890200000       0.169451078800000      -1.522130924417653E-015
 -1.029390837029413E-015  -346.027698063593       0.000000000000000E+000
   1.83071680328720     
   2.27146081300000       0.178728927300000      -8.837576441945911E-016
  2.674806219232528E-016  -346.027699166561       0.000000000000000E+000
   1.63621175507508     
   2.39544490500000       0.188484562800000       2.239969317841074E-016
  8.725117360870171E-016  -346.027700929178       0.000000000000000E+000
   1.44611528654796     
   2.52583652900000       0.198744372200000       7.324435104709455E-016
  7.661123905320642E-016  -346.027703729982       0.000000000000000E+000
   1.26340900361042     
   2.66299188500000       0.209536383100000       6.361712002180790E-016
  6.678029009548125E-016  -346.027708156367       0.000000000000000E+000
   1.09065925465548     
   2.80728955400000       0.220890383800000       5.481942339214412E-016
  8.097481150814863E-017  -346.027715115527       0.000000000000000E+000
  0.929945841503701     
   2.95913216700000       0.232838055100000       6.837707125955749E-017
  4.548635888297052E-017  -346.027726002159       0.000000000000000E+000
  0.782818105704680     
   3.11894822800000       0.245413113900000       3.374066041191760E-017
  9.671930034193165E-016  -346.027742950897       0.000000000000000E+000
  0.650280127756035     
   3.28719410600000       0.258651469100000       7.613152897306122E-016
  3.447637789593920E-016  -346.027769214693       0.000000000000000E+000
  0.532804244915807     
   3.46435620800000       0.272591393800000       2.742500488833878E-016
 -1.087621408465977E-015  -346.027809729610       0.000000000000000E+000
  0.430369897797881     
   3.65095337000000       0.287273712000000      -8.316636941729331E-016
 -9.055812491132911E-016  -346.027871954399       0.000000000000000E+000
  0.342523150414091     
   3.84753946400000       0.302742005100000      -6.870428029131458E-016
  9.865870391072223E-016  -346.027967113398       0.000000000000000E+000
  0.268451170297277     
   4.05470627800000       0.319042837800000       7.241648696990537E-016
  2.072580288578157E-015  -346.028112028903       0.000000000000000E+000
  0.207065495517585     
   4.27308667800000       0.336226006600000       1.513695318256554E-015
  8.370757761503978E-016  -346.028331811385       0.000000000000000E+000
  0.157087999633495     
   4.50335809000000       0.354344814700000       6.064160133873954E-016
 -5.017152354060371E-017  -346.028663792652       0.000000000000000E+000
  0.117134004874594     
   4.74624635400000       0.373456374300000      -3.606761993785822E-017
  5.863990632300140E-017  -346.029163251878       0.000000000000000E+000
  8.578788097418563E-002
   5.00252997400000       0.393621941900000       4.043656571568858E-017
  4.459644880747273E-017  -346.029911715903       0.000000000000000E+000
  6.166759587993335E-002
   5.27304484300000       0.414907289200000       3.011321155015309E-017
  3.334212889018490E-017  -346.031028938340       0.000000000000000E+000
  4.347594619149021E-002
   5.55868947300000       0.437383115400000       2.202023113248198E-017
 -6.561833943366566E-016  -346.032690110322       0.000000000000000E+000
  3.003747741039358E-002
   5.86043082400000       0.461125505100000      -4.170589106879820E-016
 -1.168440648292312E-015  -346.035150473510       0.000000000000000E+000
  2.032130088692156E-002
   6.17931079100000       0.486216439600000      -7.350469444434983E-016
  1.015600695415820E-015  -346.038780351190       0.000000000000000E+000
  1.345103196089487E-002
   6.51645345600000       0.512744366700000       6.046392364676355E-016
  3.746372994481715E-015  -346.044114760767       0.000000000000000E+000
  8.703838936648913E-003
   6.87307320200000       0.540804839600000       2.222959110681551E-015
  3.149253515547605E-015  -346.051923315499       0.000000000000000E+000
  5.501062280581479E-003
   7.25048381200000       0.570501232800000       1.831338221919253E-015
  4.235972984333085E-016  -346.063308182884       0.000000000000000E+000
  3.393030615620381E-003
   7.65010870100000       0.601945547100000       2.498353973165674E-016
 -2.883967338484515E-016  -346.079840585094       0.000000000000000E+000
  2.040592663533980E-003
   8.07349244700000       0.635259317000000      -1.627788801160860E-016
  3.304399086044242E-016  -346.103749871385       0.000000000000000E+000
  1.195559529394901E-003
   8.52231382000000       0.670574635700000       1.740072385480914E-016
 -8.358103395792104E-016  -346.138183753421       0.000000000000000E+000
  6.817855634038773E-004
   8.99840053100000       0.708035316000000      -4.126636105617542E-016
 -1.625291994439610E-015  -346.187564072080       0.000000000000000E+000
  3.780899175449452E-004
   9.50374599600000       0.747798208800000      -7.944487844418540E-016
 -1.033619492016177E-015  -346.258069648640       0.000000000000000E+000
  2.037090187071337E-004
   10.0405284200000       0.790034705000000      -4.865296219874892E-016
 -5.687106155711858E-016  -346.358286506970       0.000000000000000E+000
  1.065294236138026E-004
   10.6111325800000       0.834932450700000      -2.568120542841937E-016
 -1.090095995873575E-015  -346.500076073286       0.000000000000000E+000
  5.401507532597768E-005
   11.2181748400000       0.882697312400000      -4.610233858784750E-016
 -6.840495881456225E-016  -346.699723705041       0.000000000000000E+000
  2.652378553189869E-005
   11.8645318100000       0.933555636000000      -2.909493585631117E-016
  2.091443569921134E-015  -346.979442580847       0.000000000000000E+000
  1.259631771954677E-005
   12.5533735100000       0.987756851400000       7.985481614284841E-016
  1.623916797371852E-015  -347.369320598200       0.000000000000000E+000
  5.776265067421895E-006
   13.2882016000000        1.04557648800000       6.220038602533075E-016
 -1.360456286229990E-015  -347.909808722436       0.000000000000000E+000
  2.552809371165103E-006
   14.0728939900000        1.10731967400000      -4.681173845884860E-016
 -1.095151724133815E-015  -348.654855401663       0.000000000000000E+000
  1.084833791967679E-006
   14.9117566300000        1.17332522300000      -3.727947712786370E-016
  7.053415239266948E-018  -349.675789004226       0.000000000000000E+000
  4.420714935495874E-007
   15.8095843000000        1.24397041200000       2.218214578947331E-018
  2.608581826745148E-018  -351.066032799967       0.000000000000000E+000
  1.721868187567418E-007
   16.7717320600000        1.31967659900000       7.687033950233629E-019
  7.990725874681451E-017  -352.946696806318       0.000000000000000E+000
  6.386267471329591E-008
   17.8041995800000        1.40091586600000       2.103084230850877E-017
 -4.508724657931755E-016  -355.473017795773       0.000000000000000E+000
  2.245733516377261E-008
   18.9137312600000        1.48821889400000      -1.087424795900556E-016
 -1.964899501131686E-016  -358.841501200981       0.000000000000000E+000
  7.451129538522850E-009
   20.1079356300000        1.58218435700000      -5.407378224729810E-017
  1.248816115392610E-015  -363.297444330433       0.000000000000000E+000
  2.320069766716874E-009
   21.3954286000000        1.68349019300000       2.665365413326889E-016
  7.733977511029900E-016  -369.142278964249       0.000000000000000E+000
  6.739740787976531E-010
   22.7860060500000        1.79290718800000       1.638470822561448E-016
 -7.687289821129051E-016  -376.739859151299       0.000000000000000E+000
  1.815084402883635E-010
   24.2908534200000        1.91131546300000      -1.370569872494330E-016
 -1.242185694818131E-015  -386.520445884723       0.000000000000000E+000
  4.501161558703662E-011
   25.9228015700000        2.03972460900000      -2.080230733544712E-016
 -7.167744743143109E-016  -398.980735450784       0.000000000000000E+000
  1.020510646680068E-011
   27.6966413600000        2.17929843800000      -1.128153372325964E-016
  8.252410349677301E-017  -414.677907954593       0.000000000000000E+000
  2.099467109465750E-012
   29.6295134200000        2.33138565300000       9.302895264436689E-018
  7.269261187505441E-017  -434.215448374245       0.000000000000000E+000
  3.888574987937629E-013
   31.7413947900000        2.49755814000000       1.096722806839247E-017
 -1.681488161917610E-017  -458.218581094878       0.000000000000000E+000
  6.431753536259034E-014
   34.0557118800000        2.67965919400000      -3.157320584329229E-018
  1.031919275242387E-016  -487.297780974167       0.000000000000000E+000
  9.420923922322927E-015
   36.6001195300000        2.87986482800000       1.064742464597242E-017
  2.531612302149619E-017  -522.000231956174       0.000000000000000E+000
  1.211661314821972E-015
   39.4075014400000        3.10076247800000       2.156375095842371E-018
  3.073602994705502E-016  -562.751525382174       0.000000000000000E+000
  1.356629483067036E-016
   42.5172687100000        3.34545319200000       2.208537479479218E-017
  3.055197139840738E-016  -609.793426627006       0.000000000000000E+000
  1.311035689774887E-017
   45.9770657700000        3.61768585100000       2.164833764719210E-017
  8.939370997320849E-002  -661.383276027502       0.000000000000000E+000
  1.083411575704201E-018
   49.8450409500000        3.92203583200000        1.00000000000000     
  0.000000000000000E+000  -696.689238122985       0.000000000000000E+000
 -6.018531076210112E-036
  0.493838124000000       7.821316655000000E-002  0.000000000000000E+000
  0.000000000000000E+000  -346.027696299225       0.000000000000000E+000
   1.00000000000000     
  0.528406792700000       8.368808821000000E-002  2.961471811795390E-017
  8.650992692678736E-017  -346.027696299225       0.000000000000000E+000
   1.09755614023867     
  0.564667250200000       8.943095225000000E-002  6.105668089660977E-017
  1.403231754407210E-016  -346.027696299225       0.000000000000000E+000
   1.37605241912242     
  0.602704243200000       9.545518068000000E-002  1.098213560506823E-016
  2.514511799424455E-016  -346.027696299225       0.000000000000000E+000
   1.67619948944360     
  0.642606957000000       0.101774898500000       2.054296992221494E-016
  4.312336769239912E-016  -346.027696299228       0.000000000000000E+000
   1.96517523623044     
  0.684469267900000       0.108404973700000       3.640119761990913E-016
  3.780348905950033E-016  -346.027696299236       0.000000000000000E+000
   2.23176315264778     
  0.728390010400000       0.115361059500000       3.237673262380079E-016
 -3.046655047891153E-016  -346.027696299253       0.000000000000000E+000
   2.47128003902031     
  0.774473263000000       0.122659639600000      -2.695202579495035E-016
 -9.620998925143786E-016  -346.027696299290       0.000000000000000E+000
   2.68156796828716     
  0.822828651600000       0.130318076400000      -8.523648596702594E-016
 -8.254131107662607E-016  -346.027696299364       0.000000000000000E+000
   2.86160449738096     
  0.873571673900000       0.138354662200000      -7.362655845597208E-016
 -2.745389158933845E-016  -346.027696299509       0.000000000000000E+000
   3.01094022971392     
  0.926824044900000       0.146788674000000      -2.461870849059273E-016
 -1.263675746388545E-017  -346.027696299785       0.000000000000000E+000
   3.12945252439282     
  0.982714065900000       0.155640431900000      -1.141604813702959E-017
 -2.089410927559146E-016  -346.027696300297       0.000000000000000E+000
   3.21723861027790     
   1.04137701900000       0.164931361700000      -1.895678603493454E-016
 -4.283411242401410E-016  -346.027696301230       0.000000000000000E+000
   3.27457786510515     
   1.10295559000000       0.174684061600000      -3.889017661695023E-016
 -3.932380290318007E-016  -346.027696302903       0.000000000000000E+000
   3.30193183178505     
   1.16760031700000       0.184922373600000      -3.572572789062937E-016